# Region type : patch Lc1_sub1
# Faces        : 59
# Area         : 1.1202403e-06
# Scale factor : 1.0000000e+00
# Time         	sum(phi)
6e-05          	2.6378688e-10
0.000132       	5.8125045e-10
0.0002184      	9.6087890e-10
0.00032208     	1.4171198e-09
0.000446496    	1.9627744e-09
0.000595795    	2.6178713e-09
0.000774954    	3.3985603e-09
0.000989945    	4.3291044e-09
0.00124793     	5.4248802e-09
0.00155752     	6.7072465e-09
0.00192903     	8.1769485e-09
0.00237483     	9.8321845e-09
0.0029098      	1.1631638e-08
0.00355176     	1.3526887e-08
0.00429765     	1.5374107e-08
0.00475382     	1.6393430e-08
0.00497048     	1.6828355e-08
0.00518408     	1.7240358e-08
0.00542151     	1.7662705e-08
0.00568516     	1.8114386e-08
0.00595414     	1.8541553e-08
0.0062144      	1.8948019e-08
0.00646879     	1.9321608e-08
0.00672414     	1.9695413e-08
0.00698347     	2.0056737e-08
0.0072456      	2.0425338e-08
0.0075082      	2.0782027e-08
0.00777027     	2.1148567e-08
0.00803213     	2.1507546e-08
0.00829441     	2.1882237e-08
0.00855734     	2.2254635e-08
0.00882083     	2.2646671e-08
0.00908463     	2.3039774e-08
0.00934861     	2.3456041e-08
0.00961272     	2.3874617e-08
0.00987701     	2.4316647e-08
0.0101415      	2.4761031e-08
0.0104061      	2.5228444e-08
0.0106708      	2.5699500e-08
0.0109356      	2.6194518e-08
0.0112005      	2.6692814e-08
0.0114655      	2.7214416e-08
0.0117307      	2.7738401e-08
0.0119958      	2.8284643e-08
0.0122611      	2.8834632e-08
0.0125265      	2.9405571e-08
0.0127919      	2.9976180e-08
0.0130543      	3.0559120e-08
0.0133099      	3.1123070e-08
0.0135591      	3.1689743e-08
0.0138025      	3.2239584e-08
0.01404        	3.2790802e-08
0.0142718      	3.3326574e-08
0.0144983      	3.3862629e-08
0.0147199      	3.4381332e-08
0.0149367      	3.4900073e-08
0.0151492      	3.5400167e-08
0.0153574      	3.5899571e-08
0.0155616      	3.6382852e-08
0.0157619      	3.6866236e-08
0.0159587      	3.7334200e-08
0.016152       	3.7802367e-08
0.0163419      	3.8255737e-08
0.0165288      	3.8709413e-08
0.0167125      	3.9148935e-08
0.0168934      	3.9588953e-08
0.0170714      	4.0016549e-08
0.0172468      	4.0446318e-08
0.0174196      	4.0863201e-08
0.0175899      	4.1280898e-08
0.0177578      	4.1686284e-08
0.0179234      	4.2092685e-08
0.0180867      	4.2486028e-08
0.0182479      	4.2879410e-08
0.0184071      	4.3261542e-08
0.0185642      	4.3645022e-08
0.0187193      	4.4017729e-08
0.0188726      	4.4391959e-08
0.019024       	4.4756268e-08
0.0191736      	4.5124246e-08
0.0193216      	4.5482301e-08
0.0194678      	4.5842109e-08
0.0196124      	4.6192382e-08
0.0197555      	4.6544533e-08
0.019897       	4.6887523e-08
0.020037       	4.7231901e-08
0.0201755      	4.7565748e-08
0.0203126      	4.7901686e-08
0.0204484      	4.8229113e-08
0.0205828      	4.8558701e-08
0.0207159      	4.8880066e-08
0.0208477      	4.9203678e-08
0.0209783      	4.9519361e-08
0.0211076      	4.9837365e-08
0.0212358      	5.0147678e-08
0.0213628      	5.0460348e-08
0.0214886      	5.0765547e-08
0.0216134      	5.1073147e-08
0.021737       	5.1373499e-08
0.0218597      	5.1676302e-08
0.0219812      	5.1972077e-08
0.0221018      	5.2272209e-08
0.0222213      	5.2565817e-08
0.0223399      	5.2861889e-08
0.0224576      	5.3151255e-08
0.0225742      	5.3443100e-08
0.02269        	5.3728400e-08
0.0228049      	5.4016196e-08
0.0229189      	5.4297610e-08
0.023032       	5.4580925e-08
0.0231443      	5.4856449e-08
0.0232558      	5.5134493e-08
0.0233664      	5.5406432e-08
0.0234763      	5.5680876e-08
0.0235853      	5.5949336e-08
0.0236936      	5.6220295e-08
0.0238011      	5.6485395e-08
0.0239079      	5.6753008e-08
0.024014       	5.7014891e-08
0.0241193      	5.7279283e-08
0.0242239      	5.7538042e-08
0.0243279      	5.7799291e-08
0.0244311      	5.8055000e-08
0.0245337      	5.8313186e-08
0.0246356      	5.8565929e-08
0.0247369      	5.8821145e-08
0.0248375      	5.9071019e-08
0.0249375      	5.9323369e-08
0.0250369      	5.9571245e-08
0.0251357      	5.9822876e-08
0.0252339      	6.0069316e-08
0.0253315      	6.0318174e-08
0.0254285      	6.0561918e-08
0.0255249      	6.0808064e-08
0.0256208      	6.1049182e-08
0.0257161      	6.1292691e-08
0.0258108      	6.1531250e-08
0.0259051      	6.1772192e-08
0.0259987      	6.2008265e-08
0.0260919      	6.2244707e-08
0.0261846      	6.2476319e-08
0.0262767      	6.2710297e-08
0.0263683      	6.2939521e-08
0.0264595      	6.3171085e-08
0.0265501      	6.3397952e-08
0.0266403      	6.3627147e-08
0.02673        	6.3851712e-08
0.0268192      	6.4078594e-08
0.0269079      	6.4300916e-08
0.0269962      	6.4525554e-08
0.0270841      	6.4747590e-08
0.0271715      	6.4971992e-08
0.0272584      	6.5191918e-08
0.027345       	6.5414107e-08
0.0274311      	6.5631872e-08
0.0275167      	6.5851883e-08
0.027602       	6.6067522e-08
0.0276868      	6.6285395e-08
0.0277713      	6.6498950e-08
0.0278553      	6.6714732e-08
0.0279389      	6.6926255e-08
0.0280222      	6.7139476e-08
0.028105       	6.7347060e-08
0.0281875      	6.7556853e-08
0.0282696      	6.7762489e-08
0.0283513      	6.7970308e-08
0.0284326      	6.8174007e-08
0.0285136      	6.8379872e-08
0.0285942      	6.8581664e-08
0.0286744      	6.8785611e-08
0.0287543      	6.8985534e-08
0.0288339      	6.9187606e-08
0.0289131      	6.9385704e-08
0.0289919      	6.9585952e-08
0.0290705      	6.9782275e-08
0.0291486      	6.9980727e-08
0.0292265      	7.0175287e-08
0.029304       	7.0371957e-08
0.0293812      	7.0564771e-08
0.0294581      	7.0759682e-08
0.0295346      	7.0950775e-08
0.0296109      	7.1143955e-08
0.0296868      	7.1333359e-08
0.0297624      	7.1524844e-08
0.0298378      	7.1712598e-08
0.0299128      	7.1902428e-08
0.0299875      	7.2088573e-08
0.0300619      	7.2278341e-08
0.0301361      	7.2464761e-08
0.0302099      	7.2653211e-08
0.0302834      	7.2838028e-08
0.0303567      	7.3024863e-08
0.0304297      	7.3208098e-08
0.0305024      	7.3393338e-08
0.0305748      	7.3575013e-08
0.030647       	7.3758683e-08
0.0307189      	7.3938821e-08
0.0307905      	7.4120948e-08
0.0308618      	7.4299580e-08
0.0309329      	7.4480194e-08
0.0310038      	7.4657254e-08
0.0310743      	7.4834551e-08
0.0311446      	7.5008426e-08
0.0312147      	7.5184275e-08
0.0312845      	7.5356720e-08
0.0313541      	7.5531121e-08
0.0314234      	7.5702143e-08
0.0314924      	7.5875107e-08
0.0315613      	7.6044720e-08
0.0316298      	7.6216267e-08
0.0316982      	7.6384496e-08
0.0317663      	7.6554654e-08
0.0318342      	7.6721526e-08
0.0319018      	7.6890328e-08
0.0319692      	7.7055881e-08
0.0320364      	7.7223358e-08
0.0321034      	7.7387611e-08
0.0321701      	7.7553773e-08
0.0322366      	7.7716734e-08
0.0323029      	7.7881590e-08
0.032369       	7.8043268e-08
0.0324348      	7.8206830e-08
0.0325005      	7.8367239e-08
0.0325659      	7.8529524e-08
0.0326311      	7.8688684e-08
0.0326961      	7.8849714e-08
0.0327609      	7.9007648e-08
0.0328255      	7.9167446e-08
0.0328899      	7.9324177e-08
0.0329541      	7.9482770e-08
0.0330181      	7.9638825e-08
0.0330819      	7.9798003e-08
0.0331454      	7.9954156e-08
0.0332088      	8.0112135e-08
0.033272       	8.0267104e-08
0.033335       	8.0423889e-08
0.0333978      	8.0577687e-08
0.0334604      	8.0733291e-08
0.0335229      	8.0885930e-08
0.0335851      	8.1040366e-08
0.0336472      	8.1191861e-08
0.033709       	8.1345146e-08
0.0337707      	8.1495511e-08
0.0338322      	8.1647662e-08
0.0338935      	8.1796918e-08
0.0339547      	8.1947955e-08
0.0340156      	8.2095678e-08
0.0340764      	8.2243884e-08
0.034137       	8.2389248e-08
0.0341974      	8.2536384e-08
0.0342577      	8.2680688e-08
0.0343178      	8.2826751e-08
0.0343777      	8.2969999e-08
0.0344375      	8.3114994e-08
0.034497       	8.3257192e-08
0.0345564      	8.3401130e-08
0.0346157      	8.3542289e-08
0.0346748      	8.3685183e-08
0.0347337      	8.3825320e-08
0.0347925      	8.3967192e-08
0.034851       	8.4106333e-08
0.0349095      	8.4247206e-08
0.0349678      	8.4385372e-08
0.0350259      	8.4526027e-08
0.0350838      	8.4664933e-08
0.0351416      	8.4805546e-08
0.0351993      	8.4943472e-08
0.0352568      	8.5083096e-08
0.0353141      	8.5220051e-08
0.0353713      	8.5358695e-08
0.0354284      	8.5494686e-08
0.0354853      	8.5632358e-08
0.035542       	8.5767392e-08
0.0355986      	8.5904100e-08
0.035655       	8.6038190e-08
0.0357113      	8.6173949e-08
0.0357675      	8.6307109e-08
0.0358235      	8.6441932e-08
0.0358794      	8.6574172e-08
0.0359351      	8.6708073e-08
0.0359907      	8.6839411e-08
0.0360462      	8.6971011e-08
0.0361015      	8.7099791e-08
0.0361566      	8.7230230e-08
0.0362117      	8.7358140e-08
0.0362666      	8.7487692e-08
0.0363213      	8.7614726e-08
0.0363759      	8.7743392e-08
0.0364304      	8.7869553e-08
0.0364848      	8.7997338e-08
0.036539       	8.8122632e-08
0.0365931      	8.8249546e-08
0.0366471      	8.8373987e-08
0.0367009      	8.8500042e-08
0.0367546      	8.8623642e-08
0.0368082      	8.8748854e-08
0.0368616      	8.8871627e-08
0.0369149      	8.8996011e-08
0.0369681      	8.9117975e-08
0.0370212      	8.9241545e-08
0.0370741      	8.9362711e-08
0.037127       	8.9485475e-08
0.0371797      	8.9605844e-08
0.0372322      	8.9727800e-08
0.0372847      	8.9847373e-08
0.037337       	8.9968526e-08
0.0373892      	9.0087307e-08
0.0374413      	9.0207661e-08
0.0374933      	9.0325664e-08
0.0375451      	9.0445239e-08
0.0375969      	9.0562470e-08
0.0376485      	9.0681265e-08
0.0377         	9.0797730e-08
0.0377514      	9.0915755e-08
0.0378026      	9.1031469e-08
0.0378538      	9.1148743e-08
0.0379048      	9.1263720e-08
0.0379558      	9.1380251e-08
0.0380066      	9.1494713e-08
0.0380573      	9.1612133e-08
0.0381079      	9.1727273e-08
0.0381584      	9.1843942e-08
0.0382088      	9.1958345e-08
0.038259       	9.2074270e-08
0.0383092      	9.2187941e-08
0.0383592      	9.2303128e-08
0.0384092      	9.2416072e-08
0.038459       	9.2530525e-08
0.0385087      	9.2642747e-08
0.0385583      	9.2756474e-08
0.0386079      	9.2867983e-08
0.0386573      	9.2980990e-08
0.0387066      	9.3091792e-08
0.0387558      	9.3204087e-08
0.0388049      	9.3314187e-08
0.0388539      	9.3425779e-08
0.0389028      	9.3535189e-08
0.0389516      	9.3646087e-08
0.0390003      	9.3754810e-08
0.0390488      	9.3863432e-08
0.0390973      	9.3969905e-08
0.0391457      	9.4077863e-08
0.039194       	9.4183675e-08
0.0392422      	9.4290961e-08
0.0392903      	9.4396107e-08
0.0393383      	9.4502719e-08
0.0393862      	9.4607201e-08
0.039434       	9.4713142e-08
0.0394817      	9.4816962e-08
0.0395293      	9.4922236e-08
0.0395769      	9.5025397e-08
0.0396243      	9.5130016e-08
0.0396716      	9.5232538e-08
0.0397189      	9.5336508e-08
0.039766       	9.5438390e-08
0.0398131      	9.5541717e-08
0.03986        	9.5642971e-08
0.0399069      	9.5745668e-08
0.0399537      	9.5846305e-08
0.0400004      	9.5948468e-08
0.040047       	9.6059465e-08
0.0400935      	9.6171847e-08
0.0401399      	9.6282099e-08
0.0401862      	9.6393744e-08
0.0402324      	9.6503283e-08
0.0402786      	9.6614220e-08
0.0403246      	9.6723063e-08
0.0403706      	9.6833301e-08
0.0404165      	9.6941455e-08
0.0404623      	9.7050996e-08
0.040508       	9.7158461e-08
0.0405536      	9.7267305e-08
0.0405992      	9.7374080e-08
0.0406446      	9.7482227e-08
0.04069        	9.7588311e-08
0.0407353      	9.7695757e-08
0.0407805      	9.7801146e-08
0.0408256      	9.7907902e-08
0.0408706      	9.8012618e-08
0.0409155      	9.8118688e-08
0.0409604      	9.8222718e-08
0.0410052      	9.8328093e-08
0.0410499      	9.8431435e-08
0.0410945      	9.8536109e-08
0.041139       	9.8638753e-08
0.0411835      	9.8742727e-08
0.0412279      	9.8844678e-08
0.0412721      	9.8947948e-08
0.0413164      	9.9049200e-08
0.0413605      	9.9151764e-08
0.0414045      	9.9252313e-08
0.0414485      	9.9354163e-08
0.0414924      	9.9454004e-08
0.0415362      	9.9555138e-08
0.04158        	9.9654271e-08
0.0416236      	9.9754691e-08
0.0416672      	9.9853116e-08
0.0417107      	9.9952823e-08
0.0417542      	1.0005054e-07
0.0417975      	1.0014954e-07
0.0418408      	1.0024657e-07
0.041884       	1.0034487e-07
0.0419271      	1.0044121e-07
0.0419702      	1.0053882e-07
0.0420132      	1.0063401e-07
0.0420561      	1.0072942e-07
0.0420989      	1.0082288e-07
0.0421417      	1.0091761e-07
0.0421843      	1.0101040e-07
0.042227       	1.0110445e-07
0.0422695      	1.0119657e-07
0.042312       	1.0128994e-07
0.0423544      	1.0138138e-07
0.0423967      	1.0147408e-07
0.0424389      	1.0156485e-07
0.0424811      	1.0165687e-07
0.0425232      	1.0174697e-07
0.0425653      	1.0183832e-07
0.0426073      	1.0192777e-07
0.0426492      	1.0201845e-07
0.042691       	1.0210724e-07
0.0427328      	1.0219727e-07
0.0427745      	1.0228542e-07
0.0428161      	1.0237480e-07
0.0428576      	1.0246230e-07
0.0428991      	1.0255104e-07
0.0429405      	1.0263792e-07
0.0429819      	1.0272604e-07
0.0430232      	1.0281314e-07
0.0430644      	1.0290213e-07
0.0431056      	1.0298926e-07
0.0431467      	1.0307761e-07
0.0431877      	1.0316412e-07
0.0432286      	1.0325184e-07
0.0432695      	1.0333773e-07
0.0433104      	1.0342483e-07
0.0433511      	1.0351011e-07
0.0433918      	1.0359659e-07
0.0434324      	1.0368126e-07
0.043473       	1.0376713e-07
0.0435135      	1.0385119e-07
0.0435539      	1.0393646e-07
0.0435943      	1.0401992e-07
0.0436346      	1.0410459e-07
0.0436749      	1.0418746e-07
0.0437151      	1.0427153e-07
0.0437552      	1.0435381e-07
0.0437952      	1.0443730e-07
0.0438352      	1.0451901e-07
0.0438752      	1.0460193e-07
0.0439151      	1.0468307e-07
0.0439549      	1.0476542e-07
0.0439946      	1.0484601e-07
0.0440343      	1.0492780e-07
0.0440739      	1.0500784e-07
0.0441135      	1.0508908e-07
0.044153       	1.0516857e-07
0.0441925      	1.0524926e-07
0.0442319      	1.0532820e-07
0.0442712      	1.0540833e-07
0.0443105      	1.0548674e-07
0.0443497      	1.0556633e-07
0.0443888      	1.0564420e-07
0.0444279      	1.0572325e-07
0.044467       	1.0580058e-07
0.0445059      	1.0587909e-07
0.0445449      	1.0595589e-07
0.0445837      	1.0603388e-07
0.0446225      	1.0611017e-07
0.0446613      	1.0618764e-07
0.0447         	1.0626342e-07
0.0447386      	1.0634037e-07
0.0447772      	1.0641564e-07
0.0448157      	1.0649209e-07
0.0448542      	1.0656686e-07
0.0448926      	1.0664281e-07
0.0449309      	1.0671709e-07
0.0449692      	1.0679255e-07
0.0450075      	1.0686635e-07
0.0450457      	1.0694133e-07
0.0450838      	1.0701466e-07
0.0451219      	1.0708916e-07
0.0451599      	1.0716202e-07
0.0451979      	1.0723604e-07
0.0452358      	1.0730843e-07
0.0452736      	1.0738199e-07
0.0453114      	1.0745392e-07
0.0453492      	1.0752701e-07
0.0453869      	1.0759847e-07
0.0454245      	1.0767109e-07
0.0454621      	1.0774210e-07
0.0454997      	1.0781426e-07
0.0455371      	1.0788480e-07
0.0455746      	1.0795651e-07
0.045612       	1.0802660e-07
0.0456493      	1.0809786e-07
0.0456866      	1.0816752e-07
0.0457238      	1.0823833e-07
0.045761       	1.0830755e-07
0.0457981      	1.0837793e-07
0.0458351      	1.0844672e-07
0.0458722      	1.0851667e-07
0.0459091      	1.0858504e-07
0.0459461      	1.0865457e-07
0.0459829      	1.0872253e-07
0.0460197      	1.0879088e-07
0.0460565      	1.0885701e-07
0.0460932      	1.0892430e-07
0.0461299      	1.0899005e-07
0.0461665      	1.0905694e-07
0.0462031      	1.0912229e-07
0.0462396      	1.0918879e-07
0.0462761      	1.0925374e-07
0.0463125      	1.0931984e-07
0.0463489      	1.0938441e-07
0.0463852      	1.0945012e-07
0.0464215      	1.0951430e-07
0.0464577      	1.0957961e-07
0.0464939      	1.0964341e-07
0.04653        	1.0970834e-07
0.0465661      	1.0977177e-07
0.0466021      	1.0983632e-07
0.0466381      	1.0989937e-07
0.046674       	1.0996355e-07
0.0467099      	1.1002623e-07
0.0467458      	1.1009005e-07
0.0467816      	1.1015236e-07
0.0468173      	1.1021581e-07
0.046853       	1.1027778e-07
0.0468887      	1.1034088e-07
0.0469243      	1.1040250e-07
0.0469599      	1.1046525e-07
0.0469954      	1.1052654e-07
0.0470309      	1.1059017e-07
0.0470663      	1.1065250e-07
0.0471017      	1.1071596e-07
0.047137       	1.1077795e-07
0.0471723      	1.1084106e-07
0.0472075      	1.1090271e-07
0.0472428      	1.1096547e-07
0.0472779      	1.1102678e-07
0.047313       	1.1108920e-07
0.0473481      	1.1115017e-07
0.0473831      	1.1121227e-07
0.0474181      	1.1127292e-07
0.047453       	1.1133468e-07
0.0474879      	1.1139500e-07
0.0475228      	1.1145642e-07
0.0475576      	1.1151641e-07
0.0475923      	1.1157750e-07
0.047627       	1.1163716e-07
0.0476617      	1.1169792e-07
0.0476964      	1.1175727e-07
0.0477309      	1.1181771e-07
0.0477655      	1.1187673e-07
0.0478         	1.1193686e-07
0.0478344      	1.1199557e-07
0.0478689      	1.1205538e-07
0.0479032      	1.1211379e-07
0.0479376      	1.1217329e-07
0.0479719      	1.1223140e-07
0.0480061      	1.1229059e-07
0.0480403      	1.1234839e-07
0.0480745      	1.1240729e-07
0.0481086      	1.1246479e-07
0.0481427      	1.1252338e-07
0.0481767      	1.1258059e-07
0.0482107      	1.1263887e-07
0.0482447      	1.1269578e-07
0.0482786      	1.1275376e-07
0.0483125      	1.1281036e-07
0.0483463      	1.1286805e-07
0.0483801      	1.1292435e-07
0.0484138      	1.1298173e-07
0.0484476      	1.1303775e-07
0.0484812      	1.1309484e-07
0.0485149      	1.1315057e-07
0.0485485      	1.1320736e-07
0.048582       	1.1326278e-07
0.0486155      	1.1331929e-07
0.048649       	1.1337444e-07
0.0486824      	1.1343065e-07
0.0487158      	1.1348551e-07
0.0487492      	1.1354143e-07
0.0487825      	1.1359602e-07
0.0488158      	1.1365167e-07
0.048849       	1.1370598e-07
0.0488822      	1.1376135e-07
0.0489154      	1.1381538e-07
0.0489485      	1.1387047e-07
0.0489816      	1.1392423e-07
0.0490146      	1.1397905e-07
0.0490476      	1.1403254e-07
0.0490806      	1.1408708e-07
0.0491135      	1.1414030e-07
0.0491464      	1.1419457e-07
0.0491793      	1.1424752e-07
0.0492121      	1.1430151e-07
0.0492449      	1.1435419e-07
0.0492776      	1.1440791e-07
0.0493103      	1.1446031e-07
0.049343       	1.1451376e-07
0.0493756      	1.1456589e-07
0.0494082      	1.1461907e-07
0.0494408      	1.1467093e-07
0.0494733      	1.1472383e-07
0.0495058      	1.1477543e-07
0.0495382      	1.1482806e-07
0.0495706      	1.1487938e-07
0.049603       	1.1493175e-07
0.0496353      	1.1498282e-07
0.0496676      	1.1503492e-07
0.0496999      	1.1508573e-07
0.0497321      	1.1513755e-07
0.0497643      	1.1518809e-07
0.0497965      	1.1523965e-07
0.0498286      	1.1528993e-07
0.0498607      	1.1534123e-07
0.0498927      	1.1539126e-07
0.0499247      	1.1544230e-07
0.0499567      	1.1549207e-07
0.0499886      	1.1554287e-07
0.0500206      	1.1528036e-07
0.0500524      	1.1484760e-07
0.0500843      	1.1441599e-07
0.0501162      	1.1398712e-07
0.050148       	1.1355889e-07
0.0501798      	1.1313297e-07
0.0502116      	1.1270737e-07
0.0502434      	1.1228385e-07
0.0502752      	1.1186049e-07
0.050307       	1.1143913e-07
0.0503388      	1.1101788e-07
0.0503705      	1.1059862e-07
0.0504022      	1.1017949e-07
0.0504339      	1.0976237e-07
0.0504656      	1.0934544e-07
0.0504973      	1.0893058e-07
0.050529       	1.0851599e-07
0.0505606      	1.0810355e-07
0.0505923      	1.0769145e-07
0.0506239      	1.0728160e-07
0.0506555      	1.0687217e-07
0.0506871      	1.0646507e-07
0.0507187      	1.0605849e-07
0.0507503      	1.0565434e-07
0.0507818      	1.0525082e-07
0.0508134      	1.0484981e-07
0.0508449      	1.0444952e-07
0.0508764      	1.0405181e-07
0.0509079      	1.0365491e-07
0.0509394      	1.0326069e-07
0.0509708      	1.0286736e-07
0.0510023      	1.0247690e-07
0.0510337      	1.0208866e-07
0.0510652      	1.0170326e-07
0.0510966      	1.0131891e-07
0.051128       	1.0093748e-07
0.0511594      	1.0055719e-07
0.0511907      	1.0017990e-07
0.0512221      	9.9803819e-08
0.0512534      	9.9430806e-08
0.0512848      	9.9059074e-08
0.0513161      	9.8690479e-08
0.0513474      	9.8323232e-08
0.0513787      	9.7959189e-08
0.0514099      	9.7596559e-08
0.0514412      	9.7237183e-08
0.0514725      	9.6879275e-08
0.0515037      	9.6524682e-08
0.0515349      	9.6171625e-08
0.0515661      	9.5821942e-08
0.0515973      	9.5473851e-08
0.0516285      	9.5129182e-08
0.0516596      	9.4786142e-08
0.0516908      	9.4446561e-08
0.0517219      	9.4108662e-08
0.051753       	9.3774274e-08
0.0517842      	9.3441612e-08
0.0518153      	9.3112496e-08
0.0518463      	9.2785144e-08
0.0518774      	9.2461373e-08
0.0519085      	9.2139406e-08
0.0519395      	9.1821058e-08
0.0519705      	9.1504535e-08
0.0520015      	9.1191647e-08
0.0520325      	9.0880611e-08
0.0520635      	9.0573234e-08
0.0520945      	9.0267735e-08
0.0521255      	8.9965918e-08
0.0521564      	8.9666008e-08
0.0521873      	8.9369797e-08
0.0522183      	8.9075510e-08
0.0522492      	8.8784935e-08
0.0522801      	8.8496301e-08
0.0523109      	8.8211396e-08
0.0523418      	8.7928435e-08
0.0523727      	8.7649206e-08
0.0524035      	8.7371931e-08
0.0524343      	8.7098381e-08
0.0524651      	8.6826784e-08
0.0524959      	8.6558923e-08
0.0525267      	8.6293019e-08
0.0525575      	8.6030838e-08
0.0525883      	8.5770612e-08
0.052619       	8.5514117e-08
0.0526497      	8.5259580e-08
0.0526805      	8.5008770e-08
0.0527112      	8.4759927e-08
0.0527419      	8.4514811e-08
0.0527725      	8.4271640e-08
0.0528032      	8.4032179e-08
0.0528339      	8.3794656e-08
0.0528645      	8.3560825e-08
0.0528951      	8.3328904e-08
0.0529257      	8.3100642e-08
0.0529563      	8.2874291e-08
0.0529869      	8.2651602e-08
0.0530175      	8.2430813e-08
0.0530481      	8.2213665e-08
0.0530786      	8.1998393e-08
0.0531092      	8.1786740e-08
0.0531397      	8.1576941e-08
0.0531702      	8.1370736e-08
0.0532007      	8.1166359e-08
0.0532312      	8.0965539e-08
0.0532617      	8.0766516e-08
0.0532921      	8.0571022e-08
0.0533226      	8.0377309e-08
0.053353       	8.0187118e-08
0.0533834      	7.9998689e-08
0.0534138      	7.9813741e-08
0.0534442      	7.9630510e-08
0.0534746      	7.9450722e-08
0.053505       	7.9272619e-08
0.0535354      	7.9097924e-08
0.0535657      	7.8924884e-08
0.053596       	7.8755213e-08
0.0536264      	7.8587156e-08
0.0536567      	7.8422435e-08
0.053687       	7.8259299e-08
0.0537172      	7.8099462e-08
0.0537475      	7.7941176e-08
0.0537778      	7.7786155e-08
0.053808       	7.7632644e-08
0.0538383      	7.7482352e-08
0.0538685      	7.7333536e-08
0.0538987      	7.7187899e-08
0.0539289      	7.7043699e-08
0.0539591      	7.6902640e-08
0.0539892      	7.6762975e-08
0.0540194      	7.6625591e-08
0.0540495      	7.6489111e-08
0.0540797      	7.6355688e-08
0.0541098      	7.6223583e-08
0.0541399      	7.6094493e-08
0.05417        	7.5966672e-08
0.0542001      	7.5841822e-08
0.0542302      	7.5718202e-08
0.0542602      	7.5597495e-08
0.0542903      	7.5477967e-08
0.0543203      	7.5361310e-08
0.0543503      	7.5245792e-08
0.0543803      	7.5133102e-08
0.0544103      	7.5021505e-08
0.0544403      	7.4912674e-08
0.0544703      	7.4804883e-08
0.0545002      	7.4699817e-08
0.0545302      	7.4595749e-08
0.0545601      	7.4494363e-08
0.0545901      	7.4393927e-08
0.05462        	7.4296121e-08
0.0546499      	7.4199230e-08
0.0546798      	7.4104928e-08
0.0547096      	7.4011491e-08
0.0547395      	7.3920588e-08
0.0547694      	7.3830498e-08
0.0547992      	7.3742892e-08
0.054829       	7.3656054e-08
0.0548589      	7.3571660e-08
0.0548887      	7.3487995e-08
0.0549184      	7.3406716e-08
0.0549482      	7.3326112e-08
0.054978       	7.3247850e-08
0.0550078      	7.3170551e-08
0.0550375      	7.3096471e-08
0.0550672      	7.3022972e-08
0.055097       	7.2951714e-08
0.0551267      	7.2880998e-08
0.0551564      	7.2812473e-08
0.0551861      	7.2744434e-08
0.0552157      	7.2678537e-08
0.0552454      	7.2613075e-08
0.055275       	7.2549713e-08
0.0553047      	7.2486746e-08
0.0553343      	7.2425821e-08
0.0553639      	7.2365240e-08
0.0553935      	7.2306651e-08
0.0554231      	7.2248357e-08
0.0554527      	7.2192011e-08
0.0554823      	7.2135923e-08
0.0555118      	7.2081739e-08
0.0555414      	7.2027767e-08
0.0555709      	7.1975647e-08
0.0556004      	7.1923696e-08
0.0556299      	7.1873554e-08
0.0556594      	7.1823533e-08
0.0556889      	7.1775275e-08
0.0557184      	7.1727099e-08
0.0557479      	7.1680632e-08
0.0557773      	7.1634186e-08
0.0558068      	7.1589406e-08
0.0558362      	7.1544621e-08
0.0558656      	7.1501466e-08
0.055895       	7.1458279e-08
0.0559244      	7.1416679e-08
0.0559538      	7.1374995e-08
0.0559832      	7.1334855e-08
0.0560125      	7.1294589e-08
0.0560419      	7.1255824e-08
0.0560712      	7.1216881e-08
0.0561005      	7.1179395e-08
0.0561298      	7.1141685e-08
0.0561591      	7.1105391e-08
0.0561884      	7.1068850e-08
0.0562177      	7.1033681e-08
0.056247       	7.0998218e-08
0.0562762      	7.0964081e-08
0.0563055      	7.0929613e-08
0.0563347      	7.0896435e-08
0.0563639      	7.0862895e-08
0.0563932      	7.0830613e-08
0.0564224      	7.0797923e-08
0.0564515      	7.0766447e-08
0.0564807      	7.0734539e-08
0.0565099      	7.0703808e-08
0.056539       	7.0672603e-08
0.0565682      	7.0642534e-08
0.0565973      	7.0611948e-08
0.0566264      	7.0582461e-08
0.0566556      	7.0552430e-08
0.0566847      	7.0523468e-08
0.0567137      	7.0493928e-08
0.0567428      	7.0465419e-08
0.0567719      	7.0436293e-08
0.0568009      	7.0408167e-08
0.05683        	7.0379409e-08
0.056859       	7.0351608e-08
0.056888       	7.0323130e-08
0.056917       	7.0295586e-08
0.056946       	7.0267348e-08
0.056975       	7.0240012e-08
0.057004       	7.0211938e-08
0.057033       	7.0184738e-08
0.0570619      	7.0156772e-08
0.0570909      	7.0129636e-08
0.0571198      	7.0101709e-08
0.0571487      	7.0074591e-08
0.0571776      	7.0046660e-08
0.0572065      	7.0019507e-08
0.0572354      	6.9991506e-08
0.0572643      	6.9964253e-08
0.0572932      	6.9936132e-08
0.057322       	6.9908730e-08
0.0573509      	6.9880435e-08
0.0573797      	6.9852838e-08
0.0574085      	6.9824325e-08
0.0574374      	6.9796477e-08
0.0574662      	6.9767678e-08
0.057495       	6.9739517e-08
0.0575237      	6.9710385e-08
0.0575525      	6.9681874e-08
0.0575813      	6.9652377e-08
0.05761        	6.9623466e-08
0.0576388      	6.9593547e-08
0.0576675      	6.9564200e-08
0.0576962      	6.9533822e-08
0.0577249      	6.9503995e-08
0.0577536      	6.9473119e-08
0.0577823      	6.9442774e-08
0.057811       	6.9411360e-08
0.0578396      	6.9380457e-08
0.0578683      	6.9348468e-08
0.0578969      	6.9316972e-08
0.0579255      	6.9284369e-08
0.0579542      	6.9252239e-08
0.0579828      	6.9218989e-08
0.0580114      	6.9185715e-08
0.05804        	6.9150579e-08
0.0580685      	6.9115887e-08
0.0580971      	6.9080050e-08
0.0581257      	6.9044634e-08
0.0581542      	6.9008058e-08
0.0581827      	6.8971894e-08
0.0582113      	6.8934549e-08
0.0582398      	6.8897594e-08
0.0582683      	6.8859443e-08
0.0582968      	6.8821666e-08
0.0583253      	6.8782683e-08
0.0583537      	6.8744058e-08
0.0583822      	6.8704213e-08
0.0584107      	6.8664712e-08
0.0584391      	6.8623978e-08
0.0584675      	6.8583583e-08
0.0584959      	6.8541933e-08
0.0585244      	6.8500602e-08
0.0585528      	6.8458019e-08
0.0585811      	6.8415745e-08
0.0586095      	6.8372208e-08
0.0586379      	6.8328964e-08
0.0586663      	6.8284450e-08
0.0586946      	6.8240229e-08
0.0587229      	6.8194734e-08
0.0587513      	6.8149508e-08
0.0587796      	6.8102990e-08
0.0588079      	6.8056740e-08
0.0588362      	6.8009197e-08
0.0588645      	6.7961913e-08
0.0588928      	6.7913336e-08
0.058921       	6.7865021e-08
0.0589493      	6.7815408e-08
0.0589775      	6.7766038e-08
0.0590058      	6.7715604e-08
0.059034       	6.7666352e-08
0.0590622      	6.7615783e-08
0.0590904      	6.7565440e-08
0.0591186      	6.7513778e-08
0.0591468      	6.7462337e-08
0.059175       	6.7409557e-08
0.0592031      	6.7356986e-08
0.0592313      	6.7303084e-08
0.0592594      	6.7249395e-08
0.0592876      	6.7194376e-08
0.0593157      	6.7139562e-08
0.0593438      	6.7083413e-08
0.0593719      	6.7027466e-08
0.0594         	6.6970182e-08
0.0594281      	6.6913094e-08
0.0594562      	6.6854672e-08
0.0594842      	6.6796445e-08
0.0595123      	6.6736874e-08
0.0595403      	6.6677490e-08
0.0595684      	6.6616765e-08
0.0595964      	6.6556241e-08
0.0596244      	6.6494385e-08
0.0596524      	6.6432717e-08
0.0596804      	6.6369707e-08
0.0597084      	6.6306884e-08
0.0597364      	6.6242723e-08
0.0597643      	6.6178748e-08
0.0597923      	6.6113438e-08
0.0598202      	6.6048314e-08
0.0598482      	6.5981853e-08
0.0598761      	6.5915575e-08
0.059904       	6.5847963e-08
0.0599319      	6.5780543e-08
0.0599598      	6.5711792e-08
0.0599877      	6.5643230e-08
0.0600156      	6.5573339e-08
0.0600434      	6.5503637e-08
0.0600713      	6.5432609e-08
0.0600991      	6.5361768e-08
0.060127       	6.5289603e-08
0.0601548      	6.5217628e-08
0.0601826      	6.5144331e-08
0.0602104      	6.5071221e-08
0.0602382      	6.4996791e-08
0.060266       	6.4922560e-08
0.0602938      	6.4847017e-08
0.0603216      	6.4771666e-08
0.0603493      	6.4695003e-08
0.0603771      	6.4618532e-08
0.0604048      	6.4540749e-08
0.0604325      	6.4463168e-08
0.0604603      	6.4384286e-08
0.060488       	6.4305604e-08
0.0605157      	6.4225623e-08
0.0605434      	6.4145853e-08
0.0605711      	6.4064794e-08
0.0605987      	6.3983948e-08
0.0606264      	6.3901810e-08
0.060654       	6.3819878e-08
0.0606817      	6.3736665e-08
0.0607093      	6.3653665e-08
0.0607369      	6.3569391e-08
0.0607646      	6.3485341e-08
0.0607922      	6.3400023e-08
0.0608198      	6.3314931e-08
0.0608473      	6.3228579e-08
0.0608749      	6.3142459e-08
0.0609025      	6.3055087e-08
0.06093        	6.2967954e-08
0.0609576      	6.2879573e-08
0.0609851      	6.2791430e-08
0.0610127      	6.2702044e-08