# Region type : patch Lc2
# Faces        : 204
# Area         : 3.3006346e-06
# Scale factor : 1.0000000e+00
# Time         	sum(phi)
6e-05          	1.3101332e-10
0.000132       	2.8948257e-10
0.0002184      	4.8042734e-10
0.00032208     	7.1218387e-10
0.000446496    	9.9302420e-10
0.000595795    	1.3361752e-09
0.000774954    	1.7552350e-09
0.000989945    	2.2716796e-09
0.00124793     	2.9087554e-09
0.00155752     	3.7024358e-09
0.00192903     	4.6932843e-09
0.00237483     	5.9428204e-09
0.0029098      	7.5229111e-09
0.00355176     	9.5395974e-09
0.00429765     	1.2035369e-08
0.00475382     	1.3677846e-08
0.00497048     	1.4478088e-08
0.00518408     	1.5284909e-08
0.00542151     	1.6191611e-08
0.00568516     	1.7220763e-08
0.00595414     	1.8284496e-08
0.0062144      	1.9337309e-08
0.00646879     	2.0377937e-08
0.00672414     	2.1443158e-08
0.00698347     	2.2535491e-08
0.0072456      	2.3659385e-08
0.0075082      	2.4795253e-08
0.00777027     	2.5948510e-08
0.00803213     	2.7109955e-08
0.00829441     	2.8292073e-08
0.00855734     	2.9485451e-08
0.00882083     	3.0699559e-08
0.00908463     	3.1923201e-08
0.00934861     	3.3166016e-08
0.00961272     	3.4416753e-08
0.00987701     	3.5685566e-08
0.0101415      	3.6961455e-08
0.0104061      	3.8254384e-08
0.0106708      	3.9554283e-08
0.0109356      	4.0871220e-08
0.0112005      	4.2194813e-08
0.0114655      	4.3535222e-08
0.0117307      	4.4882067e-08
0.0119958      	4.6245531e-08
0.0122611      	4.7616560e-08
0.0125265      	4.9004140e-08
0.0127919      	5.0397914e-08
0.0130543      	5.1791581e-08
0.0133099      	5.3153656e-08
0.0135591      	5.4496931e-08
0.0138025      	5.5813233e-08
0.01404        	5.7111296e-08
0.0142718      	5.8383959e-08
0.0144983      	5.9640348e-08
0.0147199      	6.0872715e-08
0.0149367      	6.2090759e-08
0.0151492      	6.3285991e-08
0.0153574      	6.4468094e-08
0.0155616      	6.5630108e-08
0.0157619      	6.6780725e-08
0.0159587      	6.7912792e-08
0.016152       	6.9034601e-08
0.0163419      	7.0139169e-08
0.0165288      	7.1234438e-08
0.0167125      	7.2313612e-08
0.0168934      	7.3384335e-08
0.0170714      	7.4440487e-08
0.0172468      	7.5489655e-08
0.0174196      	7.6524617e-08
0.0175899      	7.7552469e-08
0.0177578      	7.8566916e-08
0.0179234      	7.9574827e-08
0.0180867      	8.0569405e-08
0.0182479      	8.1557368e-08
0.0184071      	8.2533277e-08
0.0185642      	8.3503574e-08
0.0187193      	8.4462387e-08
0.0188726      	8.5415985e-08
0.019024       	8.6358815e-08
0.0191736      	8.7297779e-08
0.0193216      	8.8226242e-08
0.0194678      	8.9150137e-08
0.0196124      	9.0063965e-08
0.0197555      	9.0973520e-08
0.019897       	9.1873415e-08
0.020037       	9.2769002e-08
0.0201755      	9.3654448e-08
0.0203126      	9.4536123e-08
0.0204484      	9.5408843e-08
0.0205828      	9.6278000e-08
0.0207159      	9.7138512e-08
0.0208477      	9.7995664e-08
0.0209783      	9.8844472e-08
0.0211076      	9.9690105e-08
0.0212358      	1.0052766e-07
0.0213628      	1.0136220e-07
0.0214886      	1.0218890e-07
0.0216134      	1.0301274e-07
0.021737       	1.0382899e-07
0.0218597      	1.0464253e-07
0.0219812      	1.0544870e-07
0.0221018      	1.0625323e-07
0.0222213      	1.0705078e-07
0.0223399      	1.0784585e-07
0.0224576      	1.0863396e-07
0.0225742      	1.0941972e-07
0.02269        	1.1019870e-07
0.0228049      	1.1097545e-07
0.0229189      	1.1174560e-07
0.023032       	1.1251333e-07
0.0231443      	1.1327386e-07
0.0232558      	1.1403237e-07
0.0233664      	1.1478460e-07
0.0234763      	1.1553489e-07
0.0235853      	1.1627905e-07
0.0236936      	1.1702135e-07
0.0238011      	1.1775768e-07
0.0239079      	1.1849222e-07
0.024014       	1.1922093e-07
0.0241193      	1.1994794e-07
0.0242239      	1.2066924e-07
0.0243279      	1.2138890e-07
0.0244311      	1.2210297e-07
0.0245337      	1.2281546e-07
0.0246356      	1.2352248e-07
0.0247369      	1.2422799e-07
0.0248375      	1.2492814e-07
0.0249375      	1.2562685e-07
0.0250369      	1.2632070e-07
0.0251357      	1.2701381e-07
0.0252339      	1.2770177e-07
0.0253315      	1.2838839e-07
0.0254285      	1.2906996e-07
0.0255249      	1.2975024e-07
0.0256208      	1.3042557e-07
0.0257161      	1.3109966e-07
0.0258108      	1.3176890e-07
0.0259051      	1.3243695e-07
0.0259987      	1.3310024e-07
0.0260919      	1.3376140e-07
0.0261846      	1.3441787e-07
0.0262767      	1.3507324e-07
0.0263683      	1.3572402e-07
0.0264595      	1.3637373e-07
0.0265501      	1.3701892e-07
0.0266403      	1.3766309e-07
0.02673        	1.3830281e-07
0.0268192      	1.3894154e-07
0.0269079      	1.3957591e-07
0.0269962      	1.4020934e-07
0.0270841      	1.4083941e-07
0.0271715      	1.4146862e-07
0.0272584      	1.4209358e-07
0.027345       	1.4271766e-07
0.0274311      	1.4333756e-07
0.0275167      	1.4395662e-07
0.027602       	1.4457157e-07
0.0276868      	1.4518570e-07
0.0277713      	1.4579578e-07
0.0278553      	1.4640508e-07
0.0279389      	1.4701039e-07
0.0280222      	1.4761470e-07
0.028105       	1.4821438e-07
0.0281875      	1.4881333e-07
0.0282696      	1.4940841e-07
0.0283513      	1.5000279e-07
0.0284326      	1.5059335e-07
0.0285136      	1.5118323e-07
0.0285942      	1.5176934e-07
0.0286744      	1.5235479e-07
0.0287543      	1.5293653e-07
0.0288339      	1.5351763e-07
0.0289131      	1.5409507e-07
0.0289919      	1.5467191e-07
0.0290705      	1.5524514e-07
0.0291486      	1.5581777e-07
0.0292265      	1.5638684e-07
0.029304       	1.5695534e-07
0.0293812      	1.5752031e-07
0.0294581      	1.5808473e-07
0.0295346      	1.5864566e-07
0.0296109      	1.5920606e-07
0.0296868      	1.5976303e-07
0.0297624      	1.6031947e-07
0.0298378      	1.6087253e-07
0.0299128      	1.6142509e-07
0.0299875      	1.6197431e-07
0.0300619      	1.6252382e-07
0.0301361      	1.6307018e-07
0.0302099      	1.6361606e-07
0.0302834      	1.6415868e-07
0.0303567      	1.6470085e-07
0.0304297      	1.6523978e-07
0.0305024      	1.6577827e-07
0.0305748      	1.6631357e-07
0.030647       	1.6684844e-07
0.0307189      	1.6738016e-07
0.0307905      	1.6791147e-07
0.0308618      	1.6843966e-07
0.0309329      	1.6896746e-07
0.0310038      	1.6949214e-07
0.0310743      	1.7001558e-07
0.0311446      	1.7053597e-07
0.0312147      	1.7105600e-07
0.0312845      	1.7157301e-07
0.0313541      	1.7208967e-07
0.0314234      	1.7260334e-07
0.0314924      	1.7311667e-07
0.0315613      	1.7362704e-07
0.0316298      	1.7413708e-07
0.0316982      	1.7464419e-07
0.0317663      	1.7515099e-07
0.0318342      	1.7565489e-07
0.0319018      	1.7615848e-07
0.0319692      	1.7665921e-07
0.0320364      	1.7715966e-07
0.0321034      	1.7765726e-07
0.0321701      	1.7815458e-07
0.0322366      	1.7864910e-07
0.0323029      	1.7914333e-07
0.032369       	1.7963479e-07
0.0324348      	1.8012597e-07
0.0325005      	1.8061440e-07
0.0325659      	1.8110256e-07
0.0326311      	1.8158800e-07
0.0326961      	1.8207319e-07
0.0327609      	1.8255567e-07
0.0328255      	1.8303792e-07
0.0328899      	1.8351749e-07
0.0329541      	1.8399684e-07
0.0330181      	1.8447378e-07
0.0330819      	1.8495114e-07
0.0331454      	1.8542587e-07
0.0332088      	1.8590039e-07
0.033272       	1.8637230e-07
0.033335       	1.8684401e-07
0.0333978      	1.8731313e-07
0.0334604      	1.8778206e-07
0.0335229      	1.8824842e-07
0.0335851      	1.8871459e-07
0.0336472      	1.8917823e-07
0.033709       	1.8964169e-07
0.0337707      	1.9010263e-07
0.0338322      	1.9056341e-07
0.0338935      	1.9102169e-07
0.0339547      	1.9147981e-07
0.0340156      	1.9193525e-07
0.0340764      	1.9238989e-07
0.034137       	1.9284209e-07
0.0341974      	1.9329413e-07
0.0342577      	1.9374376e-07
0.0343178      	1.9419324e-07
0.0343777      	1.9464031e-07
0.0344375      	1.9508723e-07
0.034497       	1.9553178e-07
0.0345564      	1.9597618e-07
0.0346157      	1.9641822e-07
0.0346748      	1.9686013e-07
0.0347337      	1.9729969e-07
0.0347925      	1.9773912e-07
0.034851       	1.9817623e-07
0.0349095      	1.9861323e-07
0.0349678      	1.9904791e-07
0.0350259      	1.9948287e-07
0.0350838      	1.9991600e-07
0.0351416      	2.0034903e-07
0.0351993      	2.0077978e-07
0.0352568      	2.0121043e-07
0.0353141      	2.0163882e-07
0.0353713      	2.0206712e-07
0.0354284      	2.0249317e-07
0.0354853      	2.0291913e-07
0.035542       	2.0334287e-07
0.0355986      	2.0376652e-07
0.035655       	2.0418796e-07
0.0357113      	2.0460933e-07
0.0357675      	2.0502850e-07
0.0358235      	2.0544761e-07
0.0358794      	2.0586454e-07
0.0359351      	2.0628140e-07
0.0359907      	2.0669611e-07
0.0360462      	2.0711007e-07
0.0361015      	2.0752175e-07
0.0361566      	2.0793338e-07
0.0362117      	2.0834289e-07
0.0362666      	2.0875234e-07
0.0363213      	2.0915968e-07
0.0363759      	2.0956697e-07
0.0364304      	2.0997216e-07
0.0364848      	2.1037730e-07
0.036539       	2.1078036e-07
0.0365931      	2.1118337e-07
0.0366471      	2.1158432e-07
0.0367009      	2.1198522e-07
0.0367546      	2.1238407e-07
0.0368082      	2.1278289e-07
0.0368616      	2.1317967e-07
0.0369149      	2.1357642e-07
0.0369681      	2.1397116e-07
0.0370212      	2.1436586e-07
0.0370741      	2.1475856e-07
0.037127       	2.1515123e-07
0.0371797      	2.1554191e-07
0.0372322      	2.1593257e-07
0.0372847      	2.1632124e-07
0.037337       	2.1670990e-07
0.0373892      	2.1709658e-07
0.0374413      	2.1748325e-07
0.0374933      	2.1786796e-07
0.0375451      	2.1825265e-07
0.0375969      	2.1863541e-07
0.0376485      	2.1901815e-07
0.0377         	2.1939896e-07
0.0377514      	2.1977976e-07
0.0378026      	2.2015865e-07
0.0378538      	2.2053754e-07
0.0379048      	2.2091452e-07
0.0379558      	2.2129151e-07
0.0380066      	2.2166671e-07
0.0380573      	2.2204261e-07
0.0381079      	2.2241664e-07
0.0381584      	2.2279067e-07
0.0382088      	2.2316283e-07
0.038259       	2.2353499e-07
0.0383092      	2.2390530e-07
0.0383592      	2.2427562e-07
0.0384092      	2.2464409e-07
0.038459       	2.2501257e-07
0.0385087      	2.2537922e-07
0.0385583      	2.2574589e-07
0.0386079      	2.2611073e-07
0.0386573      	2.2647560e-07
0.0387066      	2.2683865e-07
0.0387558      	2.2720172e-07
0.0388049      	2.2756300e-07
0.0388539      	2.2792430e-07
0.0389028      	2.2828382e-07
0.0389516      	2.2864336e-07
0.0390003      	2.2900113e-07
0.0390488      	2.2935815e-07
0.0390973      	2.2971340e-07
0.0391457      	2.3006869e-07
0.039194       	2.3042223e-07
0.0392422      	2.3077580e-07
0.0392903      	2.3112762e-07
0.0393383      	2.3147949e-07
0.0393862      	2.3182961e-07
0.039434       	2.3217977e-07
0.0394817      	2.3252821e-07
0.0395293      	2.3287669e-07
0.0395769      	2.3322344e-07
0.0396243      	2.3357025e-07
0.0396716      	2.3391534e-07
0.0397189      	2.3426048e-07
0.039766       	2.3460393e-07
0.0398131      	2.3494742e-07
0.03986        	2.3528923e-07
0.0399069      	2.3563109e-07
0.0399537      	2.3597128e-07
0.0400004      	2.3631156e-07
0.040047       	2.3665557e-07
0.0400935      	2.3699963e-07
0.0401399      	2.3734201e-07
0.0401862      	2.3768445e-07
0.0402324      	2.3802523e-07
0.0402786      	2.3836608e-07
0.0403246      	2.3870527e-07
0.0403706      	2.3904454e-07
0.0404165      	2.3938216e-07
0.0404623      	2.3971986e-07
0.040508       	2.4005593e-07
0.0405536      	2.4039208e-07
0.0405992      	2.4072661e-07
0.0406446      	2.4106122e-07
0.04069        	2.4139422e-07
0.0407353      	2.4172730e-07
0.0407805      	2.4205878e-07
0.0408256      	2.4239036e-07
0.0408706      	2.4272035e-07
0.0409155      	2.4305043e-07
0.0409604      	2.4337893e-07
0.0410052      	2.4370752e-07
0.0410499      	2.4403455e-07
0.0410945      	2.4436167e-07
0.041139       	2.4468722e-07
0.0411835      	2.4501287e-07
0.0412279      	2.4533697e-07
0.0412721      	2.4566117e-07
0.0413164      	2.4598382e-07
0.0413605      	2.4630657e-07
0.0414045      	2.4662778e-07
0.0414485      	2.4694909e-07
0.0414924      	2.4726886e-07
0.0415362      	2.4758874e-07
0.04158        	2.4790710e-07
0.0416236      	2.4822555e-07
0.0416672      	2.4854249e-07
0.0417107      	2.4885953e-07
0.0417542      	2.4917507e-07
0.0417975      	2.4949071e-07
0.0418408      	2.4980486e-07
0.041884       	2.5011911e-07
0.0419271      	2.5043188e-07
0.0419702      	2.5074475e-07
0.0420132      	2.5105592e-07
0.0420561      	2.5136668e-07
0.0420989      	2.5167596e-07
0.0421417      	2.5198536e-07
0.0421843      	2.5229329e-07
0.042227       	2.5260133e-07
0.0422695      	2.5290791e-07
0.042312       	2.5321461e-07
0.0423544      	2.5351985e-07
0.0423967      	2.5382520e-07
0.0424389      	2.5412910e-07
0.0424811      	2.5443312e-07
0.0425232      	2.5473570e-07
0.0425653      	2.5503839e-07
0.0426073      	2.5533965e-07
0.0426492      	2.5564102e-07
0.042691       	2.5594097e-07
0.0427328      	2.5624103e-07
0.0427745      	2.5653967e-07
0.0428161      	2.5683844e-07
0.0428576      	2.5713578e-07
0.0428991      	2.5743326e-07
0.0429405      	2.5772932e-07
0.0429819      	2.5802551e-07
0.0430232      	2.5832072e-07
0.0430644      	2.5861637e-07
0.0431056      	2.5891063e-07
0.0431467      	2.5920501e-07
0.0431877      	2.5949800e-07
0.0432286      	2.5979112e-07
0.0432695      	2.6008286e-07
0.0433104      	2.6037472e-07
0.0433511      	2.6066520e-07
0.0433918      	2.6095581e-07
0.0434324      	2.6124505e-07
0.043473       	2.6153442e-07
0.0435135      	2.6182242e-07
0.0435539      	2.6211055e-07
0.0435943      	2.6239732e-07
0.0436346      	2.6268422e-07
0.0436749      	2.6296977e-07
0.0437151      	2.6325544e-07
0.0437552      	2.6353977e-07
0.0437952      	2.6382424e-07
0.0438352      	2.6410736e-07
0.0438752      	2.6439062e-07
0.0439151      	2.6467254e-07
0.0439549      	2.6495460e-07
0.0439946      	2.6523534e-07
0.0440343      	2.6551621e-07
0.0440739      	2.6579576e-07
0.0441135      	2.6607545e-07
0.044153       	2.6635383e-07
0.0441925      	2.6663234e-07
0.0442319      	2.6690953e-07
0.0442712      	2.6718687e-07
0.0443105      	2.6746290e-07
0.0443497      	2.6773907e-07
0.0443888      	2.6801394e-07
0.0444279      	2.6828894e-07
0.044467       	2.6856265e-07
0.0445059      	2.6883650e-07
0.0445449      	2.6910906e-07
0.0445837      	2.6938175e-07
0.0446225      	2.6965317e-07
0.0446613      	2.6992473e-07
0.0447         	2.7019501e-07
0.0447386      	2.7046543e-07
0.0447772      	2.7073458e-07
0.0448157      	2.7100387e-07
0.0448542      	2.7127189e-07
0.0448926      	2.7154006e-07
0.0449309      	2.7180696e-07
0.0449692      	2.7207402e-07
0.0450075      	2.7233982e-07
0.0450457      	2.7260576e-07
0.0450838      	2.7287046e-07
0.0451219      	2.7313530e-07
0.0451599      	2.7339890e-07
0.0451979      	2.7366264e-07
0.0452358      	2.7392514e-07
0.0452736      	2.7418779e-07
0.0453114      	2.7444921e-07
0.0453492      	2.7471077e-07
0.0453869      	2.7497110e-07
0.0454245      	2.7523158e-07
0.0454621      	2.7549083e-07
0.0454997      	2.7575022e-07
0.0455371      	2.7600840e-07
0.0455746      	2.7626672e-07
0.045612       	2.7652382e-07
0.0456493      	2.7678107e-07
0.0456866      	2.7703711e-07
0.0457238      	2.7729331e-07
0.045761       	2.7754829e-07
0.0457981      	2.7780342e-07
0.0458351      	2.7805736e-07
0.0458722      	2.7831144e-07
0.0459091      	2.7856433e-07
0.0459461      	2.7881737e-07
0.0459829      	2.7906922e-07
0.0460197      	2.7932085e-07
0.0460565      	2.7957097e-07
0.0460932      	2.7982124e-07
0.0461299      	2.8007033e-07
0.0461665      	2.8031958e-07
0.0462031      	2.8056765e-07
0.0462396      	2.8081587e-07
0.0462761      	2.8106292e-07
0.0463125      	2.8131012e-07
0.0463489      	2.8155615e-07
0.0463852      	2.8180234e-07
0.0464215      	2.8204736e-07
0.0464577      	2.8229253e-07
0.0464939      	2.8253654e-07
0.04653        	2.8278070e-07
0.0465661      	2.8302371e-07
0.0466021      	2.8326688e-07
0.0466381      	2.8350889e-07
0.046674       	2.8375105e-07
0.0467099      	2.8399207e-07
0.0467458      	2.8423324e-07
0.0467816      	2.8447327e-07
0.0468173      	2.8471346e-07
0.046853       	2.8495251e-07
0.0468887      	2.8519171e-07
0.0469243      	2.8542979e-07
0.0469599      	2.8566802e-07
0.0469954      	2.8590512e-07
0.0470309      	2.8614299e-07
0.0470663      	2.8637982e-07
0.0471017      	2.8661681e-07
0.047137       	2.8685268e-07
0.0471723      	2.8708870e-07
0.0472075      	2.8732361e-07
0.0472428      	2.8755867e-07
0.0472779      	2.8779263e-07
0.047313       	2.8802674e-07
0.0473481      	2.8825974e-07
0.0473831      	2.8849291e-07
0.0474181      	2.8872498e-07
0.047453       	2.8895720e-07
0.0474879      	2.8918832e-07
0.0475228      	2.8941960e-07
0.0475576      	2.8964979e-07
0.0475923      	2.8988013e-07
0.047627       	2.9010938e-07
0.0476617      	2.9033879e-07
0.0476964      	2.9056712e-07
0.0477309      	2.9079561e-07
0.0477655      	2.9102301e-07
0.0478         	2.9125057e-07
0.0478344      	2.9147706e-07
0.0478689      	2.9170371e-07
0.0479032      	2.9192929e-07
0.0479376      	2.9215503e-07
0.0479719      	2.9237970e-07
0.0480061      	2.9260454e-07
0.0480403      	2.9282831e-07
0.0480745      	2.9305225e-07
0.0481086      	2.9327512e-07
0.0481427      	2.9349816e-07
0.0481767      	2.9372014e-07
0.0482107      	2.9394228e-07
0.0482447      	2.9416337e-07
0.0482786      	2.9438462e-07
0.0483125      	2.9460483e-07
0.0483463      	2.9482519e-07
0.0483801      	2.9504451e-07
0.0484138      	2.9526400e-07
0.0484476      	2.9548244e-07
0.0484812      	2.9570104e-07
0.0485149      	2.9591861e-07
0.0485485      	2.9613634e-07
0.048582       	2.9635304e-07
0.0486155      	2.9656990e-07
0.048649       	2.9678573e-07
0.0486824      	2.9700173e-07
0.0487158      	2.9721670e-07
0.0487492      	2.9743184e-07
0.0487825      	2.9764596e-07
0.0488158      	2.9786024e-07
0.048849       	2.9807351e-07
0.0488822      	2.9828694e-07
0.0489154      	2.9849936e-07
0.0489485      	2.9871195e-07
0.0489816      	2.9892352e-07
0.0490146      	2.9913527e-07
0.0490476      	2.9934601e-07
0.0490806      	2.9955692e-07
0.0491135      	2.9976682e-07
0.0491464      	2.9997689e-07
0.0491793      	3.0018596e-07
0.0492121      	3.0039520e-07
0.0492449      	3.0060344e-07
0.0492776      	3.0081185e-07
0.0493103      	3.0101926e-07
0.049343       	3.0122684e-07
0.0493756      	3.0143343e-07
0.0494082      	3.0164019e-07
0.0494408      	3.0184596e-07
0.0494733      	3.0205190e-07
0.0495058      	3.0225686e-07
0.0495382      	3.0246198e-07
0.0495706      	3.0266612e-07
0.049603       	3.0287044e-07
0.0496353      	3.0307378e-07
0.0496676      	3.0327728e-07
0.0496999      	3.0347981e-07
0.0497321      	3.0368251e-07
0.0497643      	3.0388424e-07
0.0497965      	3.0408614e-07
0.0498286      	3.0428707e-07
0.0498607      	3.0448817e-07
0.0498927      	3.0468831e-07
0.0499247      	3.0488862e-07
0.0499567      	3.0508798e-07
0.0499886      	3.0528750e-07
0.0500206      	3.0533171e-07
0.0500524      	3.0529086e-07
0.0500843      	3.0524949e-07
0.0501162      	3.0520839e-07
0.050148       	3.0516655e-07
0.0501798      	3.0512482e-07
0.0502116      	3.0508220e-07
0.0502434      	3.0503956e-07
0.0502752      	3.0499596e-07
0.050307       	3.0495226e-07
0.0503388      	3.0490753e-07
0.0503705      	3.0486264e-07
0.0504022      	3.0481668e-07
0.0504339      	3.0477052e-07
0.0504656      	3.0472325e-07
0.0504973      	3.0467576e-07
0.050529       	3.0462712e-07
0.0505606      	3.0457824e-07
0.0505923      	3.0452820e-07
0.0506239      	3.0447789e-07
0.0506555      	3.0442640e-07
0.0506871      	3.0437464e-07
0.0507187      	3.0432168e-07
0.0507503      	3.0426842e-07
0.0507818      	3.0421396e-07
0.0508134      	3.0415919e-07
0.0508449      	3.0410321e-07
0.0508764      	3.0404692e-07
0.0509079      	3.0398940e-07
0.0509394      	3.0393155e-07
0.0509708      	3.0387247e-07
0.0510023      	3.0381310e-07
0.0510337      	3.0375311e-07
0.0510652      	3.0369277e-07
0.0510966      	3.0363118e-07
0.051128       	3.0356925e-07
0.0511594      	3.0350607e-07
0.0511907      	3.0344253e-07
0.0512221      	3.0337774e-07
0.0512534      	3.0331258e-07
0.0512848      	3.0324617e-07
0.0513161      	3.0317941e-07
0.0513474      	3.0311138e-07
0.0513787      	3.0304298e-07
0.0514099      	3.0297333e-07
0.0514412      	3.0290330e-07
0.0514725      	3.0283201e-07
0.0515037      	3.0276036e-07
0.0515349      	3.0268744e-07
0.0515661      	3.0261415e-07
0.0515973      	3.0253960e-07
0.0516285      	3.0246469e-07
0.0516596      	3.0238850e-07
0.0516908      	3.0231195e-07
0.0517219      	3.0223413e-07
0.051753       	3.0215595e-07
0.0517842      	3.0207651e-07
0.0518153      	3.0199670e-07
0.0518463      	3.0191563e-07
0.0518774      	3.0183419e-07
0.0519085      	3.0175150e-07
0.0519395      	3.0166845e-07
0.0519705      	3.0158414e-07
0.0520015      	3.0149947e-07
0.0520325      	3.0141354e-07
0.0520635      	3.0132725e-07
0.0520945      	3.0123971e-07
0.0521255      	3.0115181e-07
0.0521564      	3.0106267e-07
0.0521873      	3.0097317e-07
0.0522183      	3.0088244e-07
0.0522492      	3.0079134e-07
0.0522801      	3.0069901e-07
0.0523109      	3.0060632e-07
0.0523418      	3.0051241e-07
0.0523727      	3.0041814e-07
0.0524035      	3.0032265e-07
0.0524343      	3.0022680e-07
0.0524651      	3.0012972e-07
0.0524959      	3.0003230e-07
0.0525267      	2.9993366e-07
0.0525575      	2.9983467e-07
0.0525883      	2.9973447e-07
0.052619       	2.9963392e-07
0.0526497      	2.9953217e-07
0.0526805      	2.9943008e-07
0.0527112      	2.9932680e-07
0.0527419      	2.9922319e-07
0.0527725      	2.9911838e-07
0.0528032      	2.9901325e-07
0.0528339      	2.9890692e-07
0.0528645      	2.9880028e-07
0.0528951      	2.9869244e-07
0.0529257      	2.9858429e-07
0.0529563      	2.9847494e-07
0.0529869      	2.9836530e-07
0.0530175      	2.9825448e-07
0.0530481      	2.9814335e-07
0.0530786      	2.9803106e-07
0.0531092      	2.9791847e-07
0.0531397      	2.9780472e-07
0.0531702      	2.9769067e-07
0.0532007      	2.9757547e-07
0.0532312      	2.9745997e-07
0.0532617      	2.9734331e-07
0.0532921      	2.9722637e-07
0.0533226      	2.9710829e-07
0.053353       	2.9698993e-07
0.0533834      	2.9687044e-07
0.0534138      	2.9675069e-07
0.0534442      	2.9662979e-07
0.0534746      	2.9650863e-07
0.053505       	2.9638635e-07
0.0535354      	2.9626380e-07
0.0535657      	2.9614014e-07
0.053596       	2.9601621e-07
0.0536264      	2.9589117e-07
0.0536567      	2.9576588e-07
0.053687       	2.9563949e-07
0.0537172      	2.9551285e-07
0.0537475      	2.9538511e-07
0.0537778      	2.9525714e-07
0.053808       	2.9512808e-07
0.0538383      	2.9499878e-07
0.0538685      	2.9486840e-07
0.0538987      	2.9473780e-07
0.0539289      	2.9460612e-07
0.0539591      	2.9447423e-07
0.0539892      	2.9434127e-07
0.0540194      	2.9420769e-07
0.0540495      	2.9407283e-07
0.0540797      	2.9393776e-07
0.0541098      	2.9380164e-07
0.0541399      	2.9366532e-07
0.05417        	2.9352795e-07
0.0542001      	2.9339039e-07
0.0542302      	2.9325179e-07
0.0542602      	2.9311300e-07
0.0542903      	2.9297318e-07
0.0543203      	2.9283317e-07
0.0543503      	2.9269214e-07
0.0543803      	2.9255093e-07
0.0544103      	2.9240870e-07
0.0544403      	2.9226630e-07
0.0544703      	2.9212288e-07
0.0545002      	2.9197930e-07
0.0545302      	2.9183471e-07
0.0545601      	2.9168996e-07
0.0545901      	2.9154421e-07
0.05462        	2.9139831e-07
0.0546499      	2.9125142e-07
0.0546798      	2.9110438e-07
0.0547096      	2.9095637e-07
0.0547395      	2.9080821e-07
0.0547694      	2.9065908e-07
0.0547992      	2.9050981e-07
0.054829       	2.9035957e-07
0.0548589      	2.9020920e-07
0.0548887      	2.9005788e-07
0.0549184      	2.8990643e-07
0.0549482      	2.8975403e-07
0.054978       	2.8960151e-07
0.0550078      	2.8944822e-07
0.0550375      	2.8929527e-07
0.0550672      	2.8914138e-07
0.055097       	2.8898739e-07
0.0551267      	2.8883247e-07
0.0551564      	2.8867745e-07
0.0551861      	2.8852151e-07
0.0552157      	2.8836548e-07
0.0552454      	2.8820853e-07
0.055275       	2.8805149e-07
0.0553047      	2.8789354e-07
0.0553343      	2.8773551e-07
0.0553639      	2.8757658e-07
0.0553935      	2.8741756e-07
0.0554231      	2.8725765e-07
0.0554527      	2.8709766e-07
0.0554823      	2.8693679e-07
0.0555118      	2.8677585e-07
0.0555414      	2.8661403e-07
0.0555709      	2.8645214e-07
0.0556004      	2.8628938e-07
0.0556299      	2.8612657e-07
0.0556594      	2.8596289e-07
0.0556889      	2.8579916e-07
0.0557184      	2.8563457e-07
0.0557479      	2.8546993e-07
0.0557773      	2.8530442e-07
0.0558068      	2.8513888e-07
0.0558362      	2.8497249e-07
0.0558656      	2.8480606e-07
0.055895       	2.8463880e-07
0.0559244      	2.8447151e-07
0.0559538      	2.8430339e-07
0.0559832      	2.8413525e-07
0.0560125      	2.8396629e-07
0.0560419      	2.8379730e-07
0.0560712      	2.8362749e-07
0.0561005      	2.8345768e-07
0.0561298      	2.8328703e-07
0.0561591      	2.8311638e-07
0.0561884      	2.8294492e-07
0.0562177      	2.8277346e-07
0.056247       	2.8260119e-07
0.0562762      	2.8242893e-07
0.0563055      	2.8225586e-07
0.0563347      	2.8208280e-07
0.0563639      	2.8190894e-07
0.0563932      	2.8173510e-07
0.0564224      	2.8156047e-07
0.0564515      	2.8138586e-07
0.0564807      	2.8121047e-07
0.0565099      	2.8103510e-07
0.056539       	2.8085895e-07
0.0565682      	2.8068283e-07
0.0565973      	2.8050593e-07
0.0566264      	2.8032907e-07
0.0566556      	2.8015143e-07
0.0566847      	2.7997383e-07
0.0567137      	2.7979547e-07
0.0567428      	2.7961715e-07
0.0567719      	2.7943807e-07
0.0568009      	2.7925903e-07
0.05683        	2.7907925e-07
0.056859       	2.7889951e-07
0.056888       	2.7871902e-07
0.056917       	2.7853858e-07
0.056946       	2.7835741e-07
0.056975       	2.7817629e-07
0.057004       	2.7799444e-07
0.057033       	2.7781265e-07
0.0570619      	2.7763012e-07
0.0570909      	2.7744765e-07
0.0571198      	2.7726446e-07
0.0571487      	2.7708133e-07
0.0571776      	2.7689748e-07
0.0572065      	2.7671370e-07
0.0572354      	2.7652920e-07
0.0572643      	2.7634477e-07
0.0572932      	2.7615963e-07
0.057322       	2.7597457e-07
0.0573509      	2.7578880e-07
0.0573797      	2.7560311e-07
0.0574085      	2.7541671e-07
0.0574374      	2.7523040e-07
0.0574662      	2.7504338e-07
0.057495       	2.7485644e-07
0.0575237      	2.7466881e-07
0.0575525      	2.7448127e-07
0.0575813      	2.7429303e-07
0.05761        	2.7410488e-07
0.0576388      	2.7391604e-07
0.0576675      	2.7372730e-07
0.0576962      	2.7353787e-07
0.0577249      	2.7334854e-07
0.0577536      	2.7315853e-07
0.0577823      	2.7296862e-07
0.057811       	2.7277803e-07
0.0578396      	2.7258755e-07
0.0578683      	2.7239640e-07
0.0578969      	2.7220535e-07
0.0579255      	2.7201363e-07
0.0579542      	2.7182202e-07
0.0579828      	2.7162975e-07
0.0580114      	2.7143735e-07
0.05804        	2.7124393e-07
0.0580685      	2.7105063e-07
0.0580971      	2.7085667e-07
0.0581257      	2.7066282e-07
0.0581542      	2.7046832e-07
0.0581827      	2.7027394e-07
0.0582113      	2.7007891e-07
0.0582398      	2.6988400e-07
0.0582683      	2.6968843e-07
0.0582968      	2.6949299e-07
0.0583253      	2.6929690e-07
0.0583537      	2.6910093e-07
0.0583822      	2.6890432e-07
0.0584107      	2.6870783e-07
0.0584391      	2.6851070e-07
0.0584675      	2.6831370e-07
0.0584959      	2.6811605e-07
0.0585244      	2.6791854e-07
0.0585528      	2.6772038e-07
0.0585811      	2.6752235e-07
0.0586095      	2.6732369e-07
0.0586379      	2.6712516e-07
0.0586663      	2.6692600e-07
0.0586946      	2.6672697e-07
0.0587229      	2.6652732e-07
0.0587513      	2.6632780e-07
0.0587796      	2.6612764e-07
0.0588079      	2.6592763e-07
0.0588362      	2.6572699e-07
0.0588645      	2.6552649e-07
0.0588928      	2.6532536e-07
0.058921       	2.6512439e-07
0.0589493      	2.6492279e-07
0.0589775      	2.6472134e-07
0.0590058      	2.6451939e-07
0.059034       	2.6431805e-07
0.0590622      	2.6411610e-07
0.0590904      	2.6391429e-07
0.0591186      	2.6371186e-07
0.0591468      	2.6350959e-07
0.059175       	2.6330669e-07
0.0592031      	2.6310394e-07
0.0592313      	2.6290058e-07
0.0592594      	2.6269736e-07
0.0592876      	2.6249354e-07
0.0593157      	2.6228987e-07
0.0593438      	2.6208558e-07
0.0593719      	2.6188145e-07
0.0594         	2.6167672e-07
0.0594281      	2.6147213e-07
0.0594562      	2.6126694e-07
0.0594842      	2.6106190e-07
0.0595123      	2.6085626e-07
0.0595403      	2.6065077e-07
0.0595684      	2.6044468e-07
0.0595964      	2.6023875e-07
0.0596244      	2.6003222e-07
0.0596524      	2.5982584e-07
0.0596804      	2.5961887e-07
0.0597084      	2.5941205e-07
0.0597364      	2.5920464e-07
0.0597643      	2.5899739e-07
0.0597923      	2.5878954e-07
0.0598202      	2.5858185e-07
0.0598482      	2.5837356e-07
0.0598761      	2.5816543e-07
0.059904       	2.5795671e-07
0.0599319      	2.5774815e-07
0.0599598      	2.5753900e-07
0.0599877      	2.5733001e-07
0.0600156      	2.5712043e-07
0.0600434      	2.5691101e-07
0.0600713      	2.5670100e-07
0.0600991      	2.5649115e-07
0.060127       	2.5628072e-07
0.0601548      	2.5607044e-07
0.0601826      	2.5585958e-07
0.0602104      	2.5564887e-07
0.0602382      	2.5543758e-07
0.060266       	2.5522645e-07
0.0602938      	2.5501474e-07
0.0603216      	2.5480318e-07
0.0603493      	2.5459104e-07
0.0603771      	2.5437906e-07
0.0604048      	2.5416649e-07
0.0604325      	2.5395408e-07
0.0604603      	2.5374109e-07
0.060488       	2.5352826e-07
0.0605157      	2.5331485e-07
0.0605434      	2.5310160e-07
0.0605711      	2.5288776e-07
0.0605987      	2.5267410e-07
0.0606264      	2.5245984e-07
0.060654       	2.5224575e-07
0.0606817      	2.5203107e-07
0.0607093      	2.5181655e-07
0.0607369      	2.5160145e-07
0.0607646      	2.5138652e-07
0.0607922      	2.5117101e-07
0.0608198      	2.5095565e-07
0.0608473      	2.5073972e-07
0.0608749      	2.5052395e-07
0.0609025      	2.5030761e-07
0.06093        	2.5009142e-07
0.0609576      	2.4987467e-07
0.0609851      	2.4965806e-07
0.0610127      	2.4944089e-07