# Region type : patch inlet
# Faces        : 43858
# Area         : 7.2615141e-04
# Scale factor : 1.0000000e+00
# Time         	sum(phi)
6e-05          	-6.3278160e-08
0.000132       	-1.3969285e-07
0.0002184      	-2.3208299e-07
0.00032208     	-3.4394835e-07
0.000446496    	-4.7962274e-07
0.000595795    	-6.4449981e-07
0.000774954    	-8.4532991e-07
0.000989945    	-1.0906138e-06
0.00124793     	-1.3911908e-06
0.00155752     	-1.7608118e-06
0.00192903     	-2.2172108e-06
0.00237483     	-2.7832211e-06
0.0029098      	-3.4889494e-06
0.00355176     	-4.3740536e-06
0.00429766     	-5.4551103e-06
0.00475367     	-6.1440534e-06
0.00497034     	-6.4787995e-06
0.00518395     	-6.8133094e-06
0.00542139     	-7.1905170e-06
0.00568505     	-7.6160524e-06
0.00595404     	-8.0574445e-06
0.0062143      	-8.4917649e-06
0.0064687      	-8.9229904e-06
0.00672407     	-9.3624707e-06
0.00698341     	-9.8155823e-06
0.00724555     	-1.0280158e-05
0.00750815     	-1.0752522e-05
0.00777023     	-1.1230878e-05
0.0080321      	-1.1715825e-05
0.0082944      	-1.2208493e-05
0.00855734     	-1.2709372e-05
0.00882082     	-1.3218302e-05
0.00908464     	-1.3735059e-05
0.00934862     	-1.4259544e-05
0.00961275     	-1.4791411e-05
0.00987705     	-1.5330713e-05
0.0101415      	-1.5877194e-05
0.0104062      	-1.6430818e-05
0.0106709      	-1.6991788e-05
0.0109358      	-1.7560072e-05
0.0112007      	-1.8135684e-05
0.0114658      	-1.8718614e-05
0.0117309      	-1.9308869e-05
0.0119961      	-1.9906429e-05
0.0122614      	-2.0511940e-05
0.0125268      	-2.1124786e-05
0.0127923      	-2.1744966e-05
0.0130547      	-2.2365010e-05
0.0133104      	-2.2975190e-05
0.0135598      	-2.3576663e-05
0.0138031      	-2.4169839e-05
0.0140406      	-2.4754346e-05
0.0142724      	-2.5331108e-05
0.0144989      	-2.5900012e-05
0.0147204      	-2.6461463e-05
0.0149373      	-2.7015831e-05
0.0151497      	-2.7563001e-05
0.0153579      	-2.8103556e-05
0.0155621      	-2.8637974e-05
0.0157624      	-2.9166522e-05
0.0159592      	-2.9689444e-05
0.0161525      	-3.0206970e-05
0.0163424      	-3.0719314e-05
0.0165292      	-3.1226674e-05
0.016713       	-3.1729236e-05
0.0168938      	-3.2227174e-05
0.0170719      	-3.2720898e-05
0.0172473      	-3.3210674e-05
0.0174201      	-3.3696283e-05
0.0175903      	-3.4177862e-05
0.0177582      	-3.4655539e-05
0.0179238      	-3.5129437e-05
0.0180872      	-3.5599357e-05
0.0182484      	-3.6065451e-05
0.0184075      	-3.6528100e-05
0.0185646      	-3.6987402e-05
0.0187197      	-3.7443453e-05
0.0188729      	-3.7896340e-05
0.0190244      	-3.8346242e-05
0.019174       	-3.8793628e-05
0.0193219      	-3.9238090e-05
0.0194682      	-3.9679703e-05
0.0196128      	-4.0118538e-05
0.0197558      	-4.0554663e-05
0.0198973      	-4.0988143e-05
0.0200373      	-4.1418891e-05
0.0201759      	-4.1846708e-05
0.020313       	-4.2272064e-05
0.0204487      	-4.2695013e-05
0.0205831      	-4.3115611e-05
0.0207162      	-4.3533906e-05
0.020848       	-4.3949949e-05
0.0209786      	-4.4363788e-05
0.0211079      	-4.4775466e-05
0.0212361      	-4.5185030e-05
0.0213631      	-4.5592521e-05
0.021489       	-4.5997980e-05
0.0216137      	-4.6401447e-05
0.0217374      	-4.6802961e-05
0.02186        	-4.7202557e-05
0.0219815      	-4.7600273e-05
0.0221021      	-4.7996594e-05
0.0222216      	-4.8391181e-05
0.0223402      	-4.8783985e-05
0.0224579      	-4.9175038e-05
0.0225745      	-4.9564370e-05
0.0226903      	-4.9952011e-05
0.0228052      	-5.0337990e-05
0.0229192      	-5.0722334e-05
0.0230323      	-5.1104923e-05
0.0231446      	-5.1485561e-05
0.0232561      	-5.1864646e-05
0.0233667      	-5.2242204e-05
0.0234765      	-5.2618258e-05
0.0235856      	-5.2992833e-05
0.0236939      	-5.3365951e-05
0.0238014      	-5.3737635e-05
0.0239082      	-5.4107905e-05
0.0240142      	-5.4476784e-05
0.0241196      	-5.4844292e-05
0.0242242      	-5.5210449e-05
0.0243281      	-5.5575274e-05
0.0244314      	-5.5938787e-05
0.024534       	-5.6301006e-05
0.0246359      	-5.6661949e-05
0.0247372      	-5.7021634e-05
0.0248378      	-5.7380079e-05
0.0249378      	-5.7737300e-05
0.0250372      	-5.8093499e-05
0.025136       	-5.8448817e-05
0.0252341      	-5.8802957e-05
0.0253317      	-5.9155935e-05
0.0254287      	-5.9507766e-05
0.0255252      	-5.9858464e-05
0.025621       	-6.0208044e-05
0.0257163      	-6.0556519e-05
0.0258111      	-6.0903905e-05
0.0259053      	-6.1250213e-05
0.025999       	-6.1595458e-05
0.0260921      	-6.1939170e-05
0.0261848      	-6.2281842e-05
0.0262769      	-6.2623489e-05
0.0263686      	-6.2964125e-05
0.0264597      	-6.3303760e-05
0.0265503      	-6.3642407e-05
0.0266405      	-6.3980077e-05
0.0267302      	-6.4316781e-05
0.0268194      	-6.4652531e-05
0.0269082      	-6.4987335e-05
0.0269965      	-6.5321206e-05
0.0270843      	-6.5654611e-05
0.0271717      	-6.5987119e-05
0.0272587      	-6.6318722e-05
0.0273452      	-6.6649429e-05
0.0274313      	-6.6979251e-05
0.027517       	-6.7308196e-05
0.0276022      	-6.7636273e-05
0.0276871      	-6.7963493e-05
0.0277715      	-6.8289863e-05
0.0278555      	-6.8615392e-05
0.0279391      	-6.8940089e-05
0.0280224      	-6.9263837e-05
0.0281052      	-6.9586429e-05
0.0281877      	-6.9908216e-05
0.0282698      	-7.0229205e-05
0.0283515      	-7.0549404e-05
0.0284328      	-7.0868821e-05
0.0285138      	-7.1187463e-05
0.0285944      	-7.1505338e-05
0.0286746      	-7.1822453e-05
0.0287545      	-7.2138815e-05
0.0288341      	-7.2454432e-05
0.0289133      	-7.2769310e-05
0.0289921      	-7.3083456e-05
0.0290707      	-7.3396877e-05
0.0291488      	-7.3709579e-05
0.0292267      	-7.4021570e-05
0.0293042      	-7.4332855e-05
0.0293814      	-7.4643440e-05
0.0294583      	-7.4953333e-05
0.0295348      	-7.5262539e-05
0.0296111      	-7.5571064e-05
0.029687       	-7.5878914e-05
0.0297626      	-7.6186095e-05
0.029838       	-7.6492613e-05
0.029913       	-7.6798473e-05
0.0299877      	-7.7103682e-05
0.0300621      	-7.7408617e-05
0.0301362      	-7.7712984e-05
0.0302101      	-7.8016714e-05
0.0302836      	-7.8319812e-05
0.0303569      	-7.8622283e-05
0.0304299      	-7.8924133e-05
0.0305026      	-7.9225367e-05
0.030575       	-7.9525990e-05
0.0306472      	-7.9826006e-05
0.0307191      	-8.0125420e-05
0.0307907      	-8.0424238e-05
0.030862       	-8.0722464e-05
0.0309331      	-8.1020102e-05
0.0310039      	-8.1317133e-05
0.0310745      	-8.1613171e-05
0.0311448      	-8.1908637e-05
0.0312149      	-8.2203535e-05
0.0312847      	-8.2497869e-05
0.0313542      	-8.2791643e-05
0.0314236      	-8.3084861e-05
0.0314926      	-8.3377529e-05
0.0315614      	-8.3669649e-05
0.03163        	-8.3961227e-05
0.0316984      	-8.4252265e-05
0.0317665      	-8.4542768e-05
0.0318343      	-8.4832740e-05
0.031902       	-8.5122185e-05
0.0319694      	-8.5411106e-05
0.0320366      	-8.5699507e-05
0.0321035      	-8.5987392e-05
0.0321703      	-8.6274765e-05
0.0322368      	-8.6561629e-05
0.0323031      	-8.6847988e-05
0.0323692      	-8.7133845e-05
0.032435       	-8.7419205e-05
0.0325006      	-8.7704069e-05
0.0325661      	-8.7988442e-05
0.0326313      	-8.8272327e-05
0.0326963      	-8.8555727e-05
0.0327611      	-8.8838646e-05
0.0328257      	-8.9121087e-05
0.0328901      	-8.9403053e-05
0.0329543      	-8.9684548e-05
0.0330182      	-8.9965694e-05
0.033082       	-9.0246676e-05
0.0331456      	-9.0527195e-05
0.033209       	-9.0807253e-05
0.0332722      	-9.1086854e-05
0.0333352      	-9.1366000e-05
0.033398       	-9.1644695e-05
0.0334606      	-9.1922942e-05
0.033523       	-9.2200743e-05
0.0335853      	-9.2478100e-05
0.0336473      	-9.2755018e-05
0.0337092      	-9.3031499e-05
0.0337709      	-9.3307544e-05
0.0338324      	-9.3583159e-05
0.0338937      	-9.3858343e-05
0.0339548      	-9.4133102e-05
0.0340158      	-9.4407329e-05
0.0340766      	-9.4680828e-05
0.0341372      	-9.4953909e-05
0.0341976      	-9.5226576e-05
0.0342579      	-9.5498829e-05
0.0343179      	-9.5770672e-05
0.0343779      	-9.6042107e-05
0.0344376      	-9.6313137e-05
0.0344972      	-9.6583764e-05
0.0345566      	-9.6853991e-05
0.0346158      	-9.7123819e-05
0.0346749      	-9.7393251e-05
0.0347338      	-9.7662290e-05
0.0347926      	-9.7930937e-05
0.0348512      	-9.8199196e-05
0.0349096      	-9.8467067e-05
0.0349679      	-9.8734555e-05
0.035026       	-9.9001842e-05
0.035084       	-9.9268973e-05
0.0351418      	-9.9535725e-05
0.0351994      	-9.9802100e-05
0.0352569      	-1.0006810e-04
0.0353143      	-1.0033373e-04
0.0353715      	-1.0059899e-04
0.0354285      	-1.0086388e-04
0.0354854      	-1.0112840e-04
0.0355422      	-1.0139256e-04
0.0355987      	-1.0165635e-04
0.0356552      	-1.0191979e-04
0.0357115      	-1.0218287e-04
0.0357677      	-1.0244559e-04
0.0358237      	-1.0270795e-04
0.0358795      	-1.0296997e-04
0.0359353      	-1.0323163e-04
0.0359908      	-1.0349294e-04
0.0360463      	-1.0375358e-04
0.0361016      	-1.0401380e-04
0.0361568      	-1.0427368e-04
0.0362118      	-1.0453322e-04
0.0362667      	-1.0479242e-04
0.0363215      	-1.0505128e-04
0.0363761      	-1.0530981e-04
0.0364306      	-1.0556800e-04
0.0364849      	-1.0582586e-04
0.0365391      	-1.0608339e-04
0.0365932      	-1.0634060e-04
0.0366472      	-1.0659747e-04
0.036701       	-1.0685402e-04
0.0367547      	-1.0711025e-04
0.0368083      	-1.0736615e-04
0.0368618      	-1.0762173e-04
0.0369151      	-1.0787700e-04
0.0369683      	-1.0813195e-04
0.0370213      	-1.0838658e-04
0.0370743      	-1.0864089e-04
0.0371271      	-1.0889490e-04
0.0371798      	-1.0914859e-04
0.0372324      	-1.0940198e-04
0.0372848      	-1.0965505e-04
0.0373371      	-1.0990782e-04
0.0373893      	-1.1016028e-04
0.0374414      	-1.1041244e-04
0.0374934      	-1.1066430e-04
0.0375453      	-1.1091586e-04
0.037597       	-1.1116712e-04
0.0376486      	-1.1141808e-04
0.0377001      	-1.1166874e-04
0.0377515      	-1.1191911e-04
0.0378028      	-1.1216918e-04
0.0378539      	-1.1241896e-04
0.037905       	-1.1266845e-04
0.0379559      	-1.1291766e-04
0.0380067      	-1.1316662e-04
0.0380574      	-1.1341563e-04
0.038108       	-1.1366436e-04
0.0381585      	-1.1391280e-04
0.0382089      	-1.1416095e-04
0.0382592      	-1.1440883e-04
0.0383093      	-1.1465642e-04
0.0383594      	-1.1490373e-04
0.0384093      	-1.1515077e-04
0.0384591      	-1.1539753e-04
0.0385089      	-1.1564401e-04
0.0385585      	-1.1589021e-04
0.038608       	-1.1613614e-04
0.0386574      	-1.1638180e-04
0.0387067      	-1.1662719e-04
0.0387559      	-1.1687231e-04
0.038805       	-1.1711716e-04
0.038854       	-1.1736174e-04
0.0389029      	-1.1760606e-04
0.0389517      	-1.1785011e-04
0.0390004      	-1.1809389e-04
0.039049       	-1.1833703e-04
0.0390975      	-1.1857992e-04
0.0391459      	-1.1882254e-04
0.0391941      	-1.1906490e-04
0.0392423      	-1.1930700e-04
0.0392904      	-1.1954885e-04
0.0393384      	-1.1979044e-04
0.0393863      	-1.2003178e-04
0.0394341      	-1.2027286e-04
0.0394819      	-1.2051369e-04
0.0395295      	-1.2075427e-04
0.039577       	-1.2099460e-04
0.0396244      	-1.2123468e-04
0.0396717      	-1.2147451e-04
0.039719       	-1.2171409e-04
0.0397661      	-1.2195342e-04
0.0398132      	-1.2219252e-04
0.0398601      	-1.2243136e-04
0.039907       	-1.2266996e-04
0.0399538      	-1.2290833e-04
0.0400005      	-1.2314647e-04
0.0400471      	-1.2338696e-04
0.0400936      	-1.2362721e-04
0.04014        	-1.2386721e-04
0.0401863      	-1.2410698e-04
0.0402326      	-1.2434650e-04
0.0402787      	-1.2458578e-04
0.0403248      	-1.2482483e-04
0.0403707      	-1.2506363e-04
0.0404166      	-1.2530220e-04
0.0404624      	-1.2554054e-04
0.0405081      	-1.2577863e-04
0.0405537      	-1.2601650e-04
0.0405993      	-1.2625413e-04
0.0406447      	-1.2649153e-04
0.0406901      	-1.2672870e-04
0.0407354      	-1.2696564e-04
0.0407806      	-1.2720234e-04
0.0408257      	-1.2743882e-04
0.0408707      	-1.2767507e-04
0.0409157      	-1.2791110e-04
0.0409605      	-1.2814690e-04
0.0410053      	-1.2838247e-04
0.04105        	-1.2861782e-04
0.0410946      	-1.2885295e-04
0.0411391      	-1.2908785e-04
0.0411836      	-1.2932253e-04
0.041228       	-1.2955699e-04
0.0412723      	-1.2979123e-04
0.0413165      	-1.3002525e-04
0.0413606      	-1.3025905e-04
0.0414047      	-1.3049264e-04
0.0414486      	-1.3072601e-04
0.0414925      	-1.3095916e-04
0.0415363      	-1.3119210e-04
0.0415801      	-1.3142482e-04
0.0416237      	-1.3165733e-04
0.0416673      	-1.3188962e-04
0.0417108      	-1.3212171e-04
0.0417543      	-1.3235358e-04
0.0417976      	-1.3258524e-04
0.0418409      	-1.3281669e-04
0.0418841      	-1.3304794e-04
0.0419272      	-1.3327897e-04
0.0419703      	-1.3350980e-04
0.0420133      	-1.3374031e-04
0.0420562      	-1.3397036e-04
0.042099       	-1.3420021e-04
0.0421418      	-1.3442985e-04
0.0421845      	-1.3465929e-04
0.0422271      	-1.3488853e-04
0.0422696      	-1.3511757e-04
0.0423121      	-1.3534640e-04
0.0423545      	-1.3557504e-04
0.0423968      	-1.3580347e-04
0.0424391      	-1.3603171e-04
0.0424812      	-1.3625975e-04
0.0425233      	-1.3648759e-04
0.0425654      	-1.3671523e-04
0.0426074      	-1.3694268e-04
0.0426493      	-1.3716993e-04
0.0426911      	-1.3739698e-04
0.0427329      	-1.3762384e-04
0.0427746      	-1.3785051e-04
0.0428162      	-1.3807699e-04
0.0428577      	-1.3830327e-04
0.0428992      	-1.3852936e-04
0.0429407      	-1.3875526e-04
0.042982       	-1.3898097e-04
0.0430233      	-1.3920669e-04
0.0430645      	-1.3943237e-04
0.0431057      	-1.3965787e-04
0.0431468      	-1.3988317e-04
0.0431878      	-1.4010829e-04
0.0432287      	-1.4033323e-04
0.0432696      	-1.4055797e-04
0.0433105      	-1.4078253e-04
0.0433512      	-1.4100691e-04
0.0433919      	-1.4123110e-04
0.0434325      	-1.4145510e-04
0.0434731      	-1.4167893e-04
0.0435136      	-1.4190257e-04
0.043554       	-1.4212602e-04
0.0435944      	-1.4234930e-04
0.0436347      	-1.4257239e-04
0.043675       	-1.4279531e-04
0.0437152      	-1.4301804e-04
0.0437553      	-1.4324060e-04
0.0437953      	-1.4346297e-04
0.0438353      	-1.4368517e-04
0.0438753      	-1.4390719e-04
0.0439152      	-1.4412904e-04
0.043955       	-1.4435070e-04
0.0439947      	-1.4457219e-04
0.0440344      	-1.4479351e-04
0.044074       	-1.4501465e-04
0.0441136      	-1.4523562e-04
0.0441531      	-1.4545641e-04
0.0441926      	-1.4567703e-04
0.044232       	-1.4589748e-04
0.0442713      	-1.4611775e-04
0.0443106      	-1.4633785e-04
0.0443498      	-1.4655779e-04
0.0443889      	-1.4677755e-04
0.044428       	-1.4699714e-04
0.0444671      	-1.4721656e-04
0.044506       	-1.4743582e-04
0.044545       	-1.4765490e-04
0.0445838      	-1.4787382e-04
0.0446226      	-1.4809257e-04
0.0446614      	-1.4831115e-04
0.0447001      	-1.4852957e-04
0.0447387      	-1.4874782e-04
0.0447773      	-1.4896591e-04
0.0448158      	-1.4918383e-04
0.0448543      	-1.4940158e-04
0.0448927      	-1.4961918e-04
0.044931       	-1.4983660e-04
0.0449693      	-1.5005387e-04
0.0450076      	-1.5027097e-04
0.0450458      	-1.5048792e-04
0.0450839      	-1.5070470e-04
0.045122       	-1.5092132e-04
0.04516        	-1.5113778e-04
0.0451979      	-1.5135408e-04
0.0452359      	-1.5157022e-04
0.0452737      	-1.5178620e-04
0.0453115      	-1.5200202e-04
0.0453493      	-1.5221768e-04
0.045387       	-1.5243319e-04
0.0454246      	-1.5264854e-04
0.0454622      	-1.5286373e-04
0.0454997      	-1.5307877e-04
0.0455372      	-1.5329365e-04
0.0455747      	-1.5350837e-04
0.045612       	-1.5372294e-04
0.0456494      	-1.5393736e-04
0.0456867      	-1.5415162e-04
0.0457239      	-1.5436573e-04
0.0457611      	-1.5457968e-04
0.0457982      	-1.5479348e-04
0.0458352      	-1.5500713e-04
0.0458723      	-1.5522063e-04
0.0459092      	-1.5543398e-04
0.0459462      	-1.5564717e-04
0.045983       	-1.5586022e-04
0.0460198      	-1.5607293e-04
0.0460566      	-1.5628533e-04
0.0460933      	-1.5649759e-04
0.04613        	-1.5670970e-04
0.0461666      	-1.5692166e-04
0.0462032      	-1.5713347e-04
0.0462397      	-1.5734514e-04
0.0462762      	-1.5755666e-04
0.0463126      	-1.5776803e-04
0.0463489      	-1.5797926e-04
0.0463853      	-1.5819034e-04
0.0464215      	-1.5840128e-04
0.0464578      	-1.5861207e-04
0.046494       	-1.5882271e-04
0.0465301      	-1.5903321e-04
0.0465662      	-1.5924357e-04
0.0466022      	-1.5945379e-04
0.0466382      	-1.5966386e-04
0.0466741      	-1.5987379e-04
0.04671        	-1.6008358e-04
0.0467459      	-1.6029323e-04
0.0467817      	-1.6050273e-04
0.0468174      	-1.6071209e-04
0.0468531      	-1.6092132e-04
0.0468888      	-1.6113040e-04
0.0469244      	-1.6133934e-04
0.04696        	-1.6154815e-04
0.0469955      	-1.6175681e-04
0.047031       	-1.6196563e-04
0.0470664      	-1.6217435e-04
0.0471018      	-1.6238293e-04
0.0471371      	-1.6259138e-04
0.0471724      	-1.6279969e-04
0.0472076      	-1.6300786e-04
0.0472428      	-1.6321589e-04
0.047278       	-1.6342378e-04
0.0473131      	-1.6363154e-04
0.0473482      	-1.6383917e-04
0.0473832      	-1.6404666e-04
0.0474182      	-1.6425401e-04
0.0474531      	-1.6446123e-04
0.047488       	-1.6466832e-04
0.0475229      	-1.6487527e-04
0.0475577      	-1.6508208e-04
0.0475924      	-1.6528877e-04
0.0476271      	-1.6549532e-04
0.0476618      	-1.6570174e-04
0.0476964      	-1.6590802e-04
0.047731       	-1.6611417e-04
0.0477656      	-1.6632020e-04
0.0478001      	-1.6652609e-04
0.0478345      	-1.6673185e-04
0.0478689      	-1.6693748e-04
0.0479033      	-1.6714297e-04
0.0479377      	-1.6734834e-04
0.0479719      	-1.6755358e-04
0.0480062      	-1.6775869e-04
0.0480404      	-1.6796367e-04
0.0480746      	-1.6816852e-04
0.0481087      	-1.6837325e-04
0.0481428      	-1.6857784e-04
0.0481768      	-1.6878231e-04
0.0482108      	-1.6898665e-04
0.0482448      	-1.6919086e-04
0.0482787      	-1.6939495e-04
0.0483125      	-1.6959891e-04
0.0483464      	-1.6980274e-04
0.0483802      	-1.7000645e-04
0.0484139      	-1.7021003e-04
0.0484476      	-1.7041349e-04
0.0484813      	-1.7061682e-04
0.0485149      	-1.7082003e-04
0.0485485      	-1.7102312e-04
0.0485821      	-1.7122607e-04
0.0486156      	-1.7142891e-04
0.0486491      	-1.7163162e-04
0.0486825      	-1.7183421e-04
0.0487159      	-1.7203668e-04
0.0487493      	-1.7223902e-04
0.0487826      	-1.7244124e-04
0.0488159      	-1.7264334e-04
0.0488491      	-1.7284532e-04
0.0488823      	-1.7304718e-04
0.0489155      	-1.7324891e-04
0.0489486      	-1.7345053e-04
0.0489817      	-1.7365202e-04
0.0490147      	-1.7385340e-04
0.0490477      	-1.7405465e-04
0.0490807      	-1.7425579e-04
0.0491136      	-1.7445680e-04
0.0491465      	-1.7465770e-04
0.0491794      	-1.7485848e-04
0.0492122      	-1.7505914e-04
0.0492449      	-1.7525968e-04
0.0492777      	-1.7546010e-04
0.0493104      	-1.7566041e-04
0.0493431      	-1.7586059e-04
0.0493757      	-1.7606066e-04
0.0494083      	-1.7626062e-04
0.0494408      	-1.7646046e-04
0.0494734      	-1.7666018e-04
0.0495058      	-1.7685978e-04
0.0495383      	-1.7705927e-04
0.0495707      	-1.7725865e-04
0.0496031      	-1.7745791e-04
0.0496354      	-1.7765705e-04
0.0496677      	-1.7785608e-04
0.0497         	-1.7805499e-04
0.0497322      	-1.7825380e-04
0.0497644      	-1.7845248e-04
0.0497965      	-1.7865106e-04
0.0498287      	-1.7884952e-04
0.0498607      	-1.7904786e-04
0.0498928      	-1.7924610e-04
0.0499248      	-1.7944422e-04
0.0499568      	-1.7964223e-04
0.0499887      	-1.7984012e-04
0.0500206      	-1.7996344e-04
0.0500525      	-1.8004602e-04
0.0500844      	-1.8012857e-04
0.0501162      	-1.8021108e-04
0.0501481      	-1.8029355e-04
0.0501799      	-1.8037598e-04
0.0502117      	-1.8045838e-04
0.0502435      	-1.8054073e-04
0.0502753      	-1.8062305e-04
0.0503071      	-1.8070534e-04
0.0503388      	-1.8078758e-04
0.0503706      	-1.8086979e-04
0.0504023      	-1.8095196e-04
0.050434       	-1.8103409e-04
0.0504657      	-1.8111619e-04
0.0504974      	-1.8119825e-04
0.0505291      	-1.8128027e-04
0.0505607      	-1.8136225e-04
0.0505924      	-1.8144420e-04
0.050624       	-1.8152611e-04
0.0506556      	-1.8160798e-04
0.0506872      	-1.8168982e-04
0.0507188      	-1.8177162e-04
0.0507503      	-1.8185338e-04
0.0507819      	-1.8193511e-04
0.0508134      	-1.8201680e-04
0.050845       	-1.8209845e-04
0.0508765      	-1.8218006e-04
0.050908       	-1.8226164e-04
0.0509395      	-1.8234319e-04
0.0509709      	-1.8242469e-04
0.0510024      	-1.8250619e-04
0.0510338      	-1.8258793e-04
0.0510652      	-1.8266964e-04
0.0510967      	-1.8275132e-04
0.0511281      	-1.8283296e-04
0.0511594      	-1.8291456e-04
0.0511908      	-1.8299612e-04
0.0512222      	-1.8307765e-04
0.0512535      	-1.8315915e-04
0.0512848      	-1.8324060e-04
0.0513162      	-1.8332202e-04
0.0513475      	-1.8340341e-04
0.0513788      	-1.8348476e-04
0.05141        	-1.8356607e-04
0.0514413      	-1.8364734e-04
0.0514725      	-1.8372858e-04
0.0515038      	-1.8380979e-04
0.051535       	-1.8389096e-04
0.0515662      	-1.8397209e-04
0.0515974      	-1.8405318e-04
0.0516286      	-1.8413424e-04
0.0516597      	-1.8421527e-04
0.0516909      	-1.8429626e-04
0.051722       	-1.8437721e-04
0.0517531      	-1.8445813e-04
0.0517842      	-1.8453901e-04
0.0518153      	-1.8461986e-04
0.0518464      	-1.8470067e-04
0.0518775      	-1.8478145e-04
0.0519085      	-1.8486219e-04
0.0519396      	-1.8494290e-04
0.0519706      	-1.8502357e-04
0.0520016      	-1.8510420e-04
0.0520326      	-1.8518480e-04
0.0520636      	-1.8526537e-04
0.0520946      	-1.8534590e-04
0.0521255      	-1.8542640e-04
0.0521565      	-1.8550686e-04
0.0521874      	-1.8558728e-04
0.0522183      	-1.8566767e-04
0.0522492      	-1.8574803e-04
0.0522801      	-1.8582835e-04
0.052311       	-1.8590864e-04
0.0523419      	-1.8598889e-04
0.0523727      	-1.8606910e-04
0.0524036      	-1.8614929e-04
0.0524344      	-1.8622944e-04
0.0524652      	-1.8630955e-04
0.052496       	-1.8638963e-04
0.0525268      	-1.8646967e-04
0.0525576      	-1.8654968e-04
0.0525883      	-1.8662966e-04
0.0526191      	-1.8670960e-04
0.0526498      	-1.8678951e-04
0.0526805      	-1.8686938e-04
0.0527112      	-1.8694922e-04
0.0527419      	-1.8702903e-04
0.0527726      	-1.8710880e-04
0.0528033      	-1.8718853e-04
0.0528339      	-1.8726824e-04
0.0528646      	-1.8734791e-04
0.0528952      	-1.8742754e-04
0.0529258      	-1.8750714e-04
0.0529564      	-1.8758671e-04
0.052987       	-1.8766624e-04
0.0530176      	-1.8774574e-04
0.0530482      	-1.8782521e-04
0.0530787      	-1.8790464e-04
0.0531092      	-1.8798404e-04
0.0531398      	-1.8806341e-04
0.0531703      	-1.8814274e-04
0.0532008      	-1.8822204e-04
0.0532313      	-1.8830130e-04
0.0532617      	-1.8838054e-04
0.0532922      	-1.8845974e-04
0.0533227      	-1.8853890e-04
0.0533531      	-1.8861803e-04
0.0533835      	-1.8869713e-04
0.0534139      	-1.8877620e-04
0.0534443      	-1.8885523e-04
0.0534747      	-1.8893423e-04
0.0535051      	-1.8901320e-04
0.0535354      	-1.8909213e-04
0.0535658      	-1.8917103e-04
0.0535961      	-1.8924990e-04
0.0536264      	-1.8932873e-04
0.0536567      	-1.8940754e-04
0.053687       	-1.8948631e-04
0.0537173      	-1.8956504e-04
0.0537476      	-1.8964375e-04
0.0537779      	-1.8972242e-04
0.0538081      	-1.8980106e-04
0.0538383      	-1.8987966e-04
0.0538686      	-1.8995823e-04
0.0538988      	-1.9003678e-04
0.053929       	-1.9011528e-04
0.0539591      	-1.9019376e-04
0.0539893      	-1.9027220e-04
0.0540195      	-1.9035042e-04
0.0540496      	-1.9042850e-04
0.0540797      	-1.9050654e-04
0.0541099      	-1.9058456e-04
0.05414        	-1.9066254e-04
0.0541701      	-1.9074049e-04
0.0542002      	-1.9081841e-04
0.0542302      	-1.9089629e-04
0.0542603      	-1.9097415e-04
0.0542903      	-1.9105197e-04
0.0543204      	-1.9112976e-04
0.0543504      	-1.9120752e-04
0.0543804      	-1.9128525e-04
0.0544104      	-1.9136294e-04
0.0544404      	-1.9144061e-04
0.0544704      	-1.9151824e-04
0.0545003      	-1.9159584e-04
0.0545303      	-1.9167341e-04
0.0545602      	-1.9175095e-04
0.0545901      	-1.9182846e-04
0.0546201      	-1.9190594e-04
0.05465        	-1.9198338e-04
0.0546798      	-1.9206079e-04
0.0547097      	-1.9213818e-04
0.0547396      	-1.9221553e-04
0.0547694      	-1.9229285e-04
0.0547993      	-1.9237014e-04
0.0548291      	-1.9244739e-04
0.0548589      	-1.9252462e-04
0.0548887      	-1.9260182e-04
0.0549185      	-1.9267898e-04
0.0549483      	-1.9275612e-04
0.0549781      	-1.9283322e-04
0.0550078      	-1.9291037e-04
0.0550376      	-1.9298771e-04
0.0550673      	-1.9306502e-04
0.055097       	-1.9314229e-04
0.0551267      	-1.9321954e-04
0.0551564      	-1.9329676e-04
0.0551861      	-1.9337394e-04
0.0552158      	-1.9345109e-04
0.0552455      	-1.9352822e-04
0.0552751      	-1.9360531e-04
0.0553048      	-1.9368237e-04
0.0553344      	-1.9375940e-04
0.055364       	-1.9383640e-04
0.0553936      	-1.9391337e-04
0.0554232      	-1.9399031e-04
0.0554528      	-1.9406722e-04
0.0554823      	-1.9414410e-04
0.0555119      	-1.9422094e-04
0.0555414      	-1.9429776e-04
0.055571       	-1.9437455e-04
0.0556005      	-1.9445130e-04
0.05563        	-1.9452803e-04
0.0556595      	-1.9460473e-04
0.055689       	-1.9468139e-04
0.0557185      	-1.9475803e-04
0.0557479      	-1.9483463e-04
0.0557774      	-1.9491121e-04
0.0558068      	-1.9498775e-04
0.0558363      	-1.9506427e-04
0.0558657      	-1.9514075e-04
0.0558951      	-1.9521721e-04
0.0559245      	-1.9529363e-04
0.0559539      	-1.9537003e-04
0.0559832      	-1.9544639e-04
0.0560126      	-1.9552273e-04
0.0560419      	-1.9559903e-04
0.0560713      	-1.9567531e-04
0.0561006      	-1.9575156e-04
0.0561299      	-1.9582777e-04
0.0561592      	-1.9590396e-04
0.0561885      	-1.9598012e-04
0.0562178      	-1.9605624e-04
0.0562471      	-1.9613234e-04
0.0562763      	-1.9620841e-04
0.0563056      	-1.9628445e-04
0.0563348      	-1.9636046e-04
0.056364       	-1.9643644e-04
0.0563932      	-1.9651239e-04
0.0564224      	-1.9658831e-04
0.0564516      	-1.9666420e-04
0.0564808      	-1.9674007e-04
0.05651        	-1.9681590e-04
0.0565391      	-1.9689170e-04
0.0565683      	-1.9696748e-04
0.0565974      	-1.9704323e-04
0.0566265      	-1.9711894e-04
0.0566556      	-1.9719463e-04
0.0566847      	-1.9727029e-04
0.0567138      	-1.9734592e-04
0.0567429      	-1.9742152e-04
0.056772       	-1.9749709e-04
0.056801       	-1.9757263e-04
0.0568301      	-1.9764815e-04
0.0568591      	-1.9772363e-04
0.0568881      	-1.9779909e-04
0.0569171      	-1.9787452e-04
0.0569461      	-1.9794992e-04
0.0569751      	-1.9802529e-04
0.0570041      	-1.9810063e-04
0.0570331      	-1.9817594e-04
0.057062       	-1.9825122e-04
0.057091       	-1.9832648e-04
0.0571199      	-1.9840171e-04
0.0571488      	-1.9847690e-04
0.0571777      	-1.9855207e-04
0.0572066      	-1.9862722e-04
0.0572355      	-1.9870233e-04
0.0572644      	-1.9877741e-04
0.0572933      	-1.9885247e-04
0.0573221      	-1.9892750e-04
0.057351       	-1.9900250e-04
0.0573798      	-1.9907747e-04
0.0574086      	-1.9915241e-04
0.0574374      	-1.9922733e-04
0.0574662      	-1.9930221e-04
0.057495       	-1.9937707e-04
0.0575238      	-1.9945190e-04
0.0575526      	-1.9952671e-04
0.0575813      	-1.9960148e-04
0.0576101      	-1.9967623e-04
0.0576388      	-1.9975094e-04
0.0576676      	-1.9982563e-04
0.0576963      	-1.9990030e-04
0.057725       	-1.9997493e-04
0.0577537      	-2.0004954e-04
0.0577824      	-2.0012412e-04
0.057811       	-2.0019867e-04
0.0578397      	-2.0027319e-04
0.0578683      	-2.0034769e-04
0.057897       	-2.0042216e-04
0.0579256      	-2.0049660e-04
0.0579542      	-2.0057101e-04
0.0579828      	-2.0064539e-04
0.0580114      	-2.0071964e-04
0.05804        	-2.0079368e-04
0.0580686      	-2.0086770e-04
0.0580972      	-2.0094169e-04
0.0581257      	-2.0101565e-04
0.0581543      	-2.0108959e-04
0.0581828      	-2.0116349e-04
0.0582113      	-2.0123737e-04
0.0582399      	-2.0131123e-04
0.0582684      	-2.0138505e-04
0.0582969      	-2.0145885e-04
0.0583253      	-2.0153263e-04
0.0583538      	-2.0160637e-04
0.0583823      	-2.0168009e-04
0.0584107      	-2.0175378e-04
0.0584392      	-2.0182745e-04
0.0584676      	-2.0190108e-04
0.058496       	-2.0197469e-04
0.0585244      	-2.0204828e-04
0.0585528      	-2.0212184e-04
0.0585812      	-2.0219537e-04
0.0586096      	-2.0226887e-04
0.058638       	-2.0234235e-04
0.0586663      	-2.0241580e-04
0.0586947      	-2.0248922e-04
0.058723       	-2.0256262e-04
0.0587513      	-2.0263599e-04
0.0587797      	-2.0270933e-04
0.058808       	-2.0278265e-04
0.0588363      	-2.0285594e-04
0.0588646      	-2.0292921e-04
0.0588928      	-2.0300244e-04
0.0589211      	-2.0307565e-04
0.0589494      	-2.0314884e-04
0.0589776      	-2.0322200e-04
0.0590058      	-2.0329519e-04
0.0590341      	-2.0336858e-04
0.0590623      	-2.0344194e-04
0.0590905      	-2.0351527e-04
0.0591187      	-2.0358858e-04
0.0591469      	-2.0366187e-04
0.059175       	-2.0373512e-04
0.0592032      	-2.0380835e-04
0.0592314      	-2.0388156e-04
0.0592595      	-2.0395473e-04
0.0592876      	-2.0402788e-04
0.0593158      	-2.0410101e-04
0.0593439      	-2.0417411e-04
0.059372       	-2.0424718e-04
0.0594001      	-2.0432023e-04
0.0594282      	-2.0439325e-04
0.0594562      	-2.0446624e-04
0.0594843      	-2.0453921e-04
0.0595124      	-2.0461215e-04
0.0595404      	-2.0468507e-04
0.0595684      	-2.0475796e-04
0.0595965      	-2.0483082e-04
0.0596245      	-2.0490366e-04
0.0596525      	-2.0497647e-04
0.0596805      	-2.0504926e-04
0.0597085      	-2.0512202e-04
0.0597364      	-2.0519475e-04
0.0597644      	-2.0526746e-04
0.0597924      	-2.0534014e-04
0.0598203      	-2.0541280e-04
0.0598482      	-2.0548543e-04
0.0598762      	-2.0555804e-04
0.0599041      	-2.0563062e-04
0.059932       	-2.0570318e-04
0.0599599      	-2.0577570e-04
0.0599878      	-2.0584821e-04
0.0600156      	-2.0592069e-04
0.0600435      	-2.0599314e-04
0.0600714      	-2.0606557e-04
0.0600992      	-2.0613797e-04
0.0601271      	-2.0621034e-04