# Region type : patch inlet
# Faces        : 43858
# Area         : 7.2615141e-04
# Scale factor : 1.0000000e+00
# Time         	sum(phi)
6e-05          	-6.3278160e-08
0.000132       	-1.3969285e-07
0.0002184      	-2.3208299e-07
0.00032208     	-3.4394835e-07
0.000446496    	-4.7962274e-07
0.000595795    	-6.4449981e-07
0.000774954    	-8.4532991e-07
0.000989945    	-1.0906138e-06
0.00124793     	-1.3911908e-06
0.00155752     	-1.7608118e-06
0.00192903     	-2.2172108e-06
0.00237483     	-2.7832211e-06
0.0029098      	-3.4889494e-06
0.00355176     	-4.3740536e-06
0.00429765     	-5.4551009e-06
0.00475382     	-6.1442914e-06
0.00497048     	-6.4790266e-06
0.00518408     	-6.8135169e-06
0.00542151     	-7.1907024e-06
0.00568516     	-7.6162279e-06
0.00595414     	-8.0576134e-06
0.0062144      	-8.4919242e-06
0.00646879     	-8.9231352e-06
0.00672414     	-9.3625963e-06
0.00698347     	-9.8156920e-06
0.0072456      	-1.0280258e-05
0.0075082      	-1.0752614e-05
0.00777027     	-1.1230955e-05
0.00803213     	-1.1715878e-05
0.00829441     	-1.2208519e-05
0.00855734     	-1.2709382e-05
0.00882083     	-1.3218307e-05
0.00908463     	-1.3735052e-05
0.00934861     	-1.4259513e-05
0.00961272     	-1.4791349e-05
0.00987701     	-1.5330615e-05
0.0101415      	-1.5877058e-05
0.0104061      	-1.6430639e-05
0.0106708      	-1.6991551e-05
0.0109356      	-1.7559764e-05
0.0112005      	-1.8135297e-05
0.0114655      	-1.8718147e-05
0.0117307      	-1.9308319e-05
0.0119958      	-1.9905787e-05
0.0122611      	-2.0511201e-05
0.0125265      	-2.1123940e-05
0.0127919      	-2.1744009e-05
0.0130543      	-2.2363878e-05
0.0133099      	-2.2973881e-05
0.0135591      	-2.3575175e-05
0.0138025      	-2.4168320e-05
0.01404        	-2.4752848e-05
0.0142718      	-2.5329630e-05
0.0144983      	-2.5898554e-05
0.0147199      	-2.6460024e-05
0.0149367      	-2.7014410e-05
0.0151492      	-2.7561599e-05
0.0153574      	-2.8102170e-05
0.0155616      	-2.8636604e-05
0.0157619      	-2.9165166e-05
0.0159587      	-2.9688103e-05
0.016152       	-3.0205643e-05
0.0163419      	-3.0717999e-05
0.0165288      	-3.1225372e-05
0.0167125      	-3.1727946e-05
0.0168934      	-3.2225896e-05
0.0170714      	-3.2719629e-05
0.0172468      	-3.3209416e-05
0.0174196      	-3.3695036e-05
0.0175899      	-3.4176625e-05
0.0177578      	-3.4654312e-05
0.0179234      	-3.5128220e-05
0.0180867      	-3.5598150e-05
0.0182479      	-3.6064253e-05
0.0184071      	-3.6526911e-05
0.0185642      	-3.6986222e-05
0.0187193      	-3.7442281e-05
0.0188726      	-3.7895176e-05
0.019024       	-3.8345084e-05
0.0191736      	-3.8792478e-05
0.0193216      	-3.9236947e-05
0.0194678      	-3.9678568e-05
0.0196124      	-4.0117410e-05
0.0197555      	-4.0553542e-05
0.019897       	-4.0987029e-05
0.020037       	-4.1417785e-05
0.0201755      	-4.1845608e-05
0.0203126      	-4.2270970e-05
0.0204484      	-4.2693926e-05
0.0205828      	-4.3114529e-05
0.0207159      	-4.3532830e-05
0.0208477      	-4.3948879e-05
0.0209783      	-4.4362723e-05
0.0211076      	-4.4774408e-05
0.0212358      	-4.5183977e-05
0.0213628      	-4.5591473e-05
0.0214886      	-4.5996937e-05
0.0216134      	-4.6400409e-05
0.021737       	-4.6801928e-05
0.0218597      	-4.7201529e-05
0.0219812      	-4.7599250e-05
0.0221018      	-4.7995574e-05
0.0222213      	-4.8390166e-05
0.0223399      	-4.8782974e-05
0.0224576      	-4.9174032e-05
0.0225742      	-4.9563368e-05
0.02269        	-4.9951013e-05
0.0228049      	-5.0336996e-05
0.0229189      	-5.0721345e-05
0.023032       	-5.1103939e-05
0.0231443      	-5.1484581e-05
0.0232558      	-5.1863670e-05
0.0233664      	-5.2241232e-05
0.0234763      	-5.2617290e-05
0.0235853      	-5.2991869e-05
0.0236936      	-5.3364991e-05
0.0238011      	-5.3736678e-05
0.0239079      	-5.4106952e-05
0.024014       	-5.4475835e-05
0.0241193      	-5.4843346e-05
0.0242239      	-5.5209506e-05
0.0243279      	-5.5574335e-05
0.0244311      	-5.5937851e-05
0.0245337      	-5.6300073e-05
0.0246356      	-5.6661020e-05
0.0247369      	-5.7020708e-05
0.0248375      	-5.7379156e-05
0.0249375      	-5.7736380e-05
0.0250369      	-5.8092581e-05
0.0251357      	-5.8447902e-05
0.0252339      	-5.8802046e-05
0.0253315      	-5.9155026e-05
0.0254285      	-5.9506860e-05
0.0255249      	-5.9857561e-05
0.0256208      	-6.0207144e-05
0.0257161      	-6.0555622e-05
0.0258108      	-6.0903010e-05
0.0259051      	-6.1249321e-05
0.0259987      	-6.1594569e-05
0.0260919      	-6.1938285e-05
0.0261846      	-6.2280959e-05
0.0262767      	-6.2622609e-05
0.0263683      	-6.2963248e-05
0.0264595      	-6.3302886e-05
0.0265501      	-6.3641535e-05
0.0266403      	-6.3979208e-05
0.02673        	-6.4315914e-05
0.0268192      	-6.4651666e-05
0.0269079      	-6.4986473e-05
0.0269962      	-6.5320347e-05
0.0270841      	-6.5653752e-05
0.0271715      	-6.5986262e-05
0.0272584      	-6.6317868e-05
0.027345       	-6.6648577e-05
0.0274311      	-6.6978401e-05
0.0275167      	-6.7307348e-05
0.027602       	-6.7635428e-05
0.0276868      	-6.7962650e-05
0.0277713      	-6.8289022e-05
0.0278553      	-6.8614553e-05
0.0279389      	-6.8939253e-05
0.0280222      	-6.9263004e-05
0.028105       	-6.9585598e-05
0.0281875      	-6.9907387e-05
0.0282696      	-7.0228378e-05
0.0283513      	-7.0548579e-05
0.0284326      	-7.0867998e-05
0.0285136      	-7.1186642e-05
0.0285942      	-7.1504519e-05
0.0286744      	-7.1821636e-05
0.0287543      	-7.2138000e-05
0.0288339      	-7.2453619e-05
0.0289131      	-7.2768499e-05
0.0289919      	-7.3082647e-05
0.0290705      	-7.3396069e-05
0.0291486      	-7.3708774e-05
0.0292265      	-7.4020766e-05
0.029304       	-7.4332053e-05
0.0293812      	-7.4642640e-05
0.0294581      	-7.4952535e-05
0.0295346      	-7.5261743e-05
0.0296109      	-7.5570269e-05
0.0296868      	-7.5878121e-05
0.0297624      	-7.6185304e-05
0.0298378      	-7.6491824e-05
0.0299128      	-7.6797686e-05
0.0299875      	-7.7102895e-05
0.0300619      	-7.7407831e-05
0.0301361      	-7.7712200e-05
0.0302099      	-7.8015931e-05
0.0302834      	-7.8319031e-05
0.0303567      	-7.8621504e-05
0.0304297      	-7.8923356e-05
0.0305024      	-7.9224591e-05
0.0305748      	-7.9525215e-05
0.030647       	-7.9825233e-05
0.0307189      	-8.0124649e-05
0.0307905      	-8.0423468e-05
0.0308618      	-8.0721695e-05
0.0309329      	-8.1019335e-05
0.0310038      	-8.1316368e-05
0.0310743      	-8.1612408e-05
0.0311446      	-8.1907876e-05
0.0312147      	-8.2202775e-05
0.0312845      	-8.2497110e-05
0.0313541      	-8.2790886e-05
0.0314234      	-8.3084106e-05
0.0314924      	-8.3376775e-05
0.0315613      	-8.3668897e-05
0.0316298      	-8.3960475e-05
0.0316982      	-8.4251515e-05
0.0317663      	-8.4542020e-05
0.0318342      	-8.4831993e-05
0.0319018      	-8.5121439e-05
0.0319692      	-8.5410361e-05
0.0320364      	-8.5698764e-05
0.0321034      	-8.5986651e-05
0.0321701      	-8.6274025e-05
0.0322366      	-8.6560890e-05
0.0323029      	-8.6847250e-05
0.032369       	-8.7133109e-05
0.0324348      	-8.7418469e-05
0.0325005      	-8.7703335e-05
0.0325659      	-8.7987709e-05
0.0326311      	-8.8271595e-05
0.0326961      	-8.8554997e-05
0.0327609      	-8.8837917e-05
0.0328255      	-8.9120359e-05
0.0328899      	-8.9402327e-05
0.0329541      	-8.9683822e-05
0.0330181      	-8.9964969e-05
0.0330819      	-9.0245952e-05
0.0331454      	-9.0526472e-05
0.0332088      	-9.0806531e-05
0.033272       	-9.1086133e-05
0.033335       	-9.1365281e-05
0.0333978      	-9.1643977e-05
0.0334604      	-9.1922225e-05
0.0335229      	-9.2200027e-05
0.0335851      	-9.2477386e-05
0.0336472      	-9.2754305e-05
0.033709       	-9.3030786e-05
0.0337707      	-9.3306833e-05
0.0338322      	-9.3582448e-05
0.0338935      	-9.3857634e-05
0.0339547      	-9.4132394e-05
0.0340156      	-9.4406623e-05
0.0340764      	-9.4680123e-05
0.034137       	-9.4953206e-05
0.0341974      	-9.5225873e-05
0.0342577      	-9.5498127e-05
0.0343178      	-9.5769971e-05
0.0343777      	-9.6041408e-05
0.0344375      	-9.6312439e-05
0.034497       	-9.6583067e-05
0.0345564      	-9.6853294e-05
0.0346157      	-9.7123124e-05
0.0346748      	-9.7392557e-05
0.0347337      	-9.7661597e-05
0.0347925      	-9.7930245e-05
0.034851       	-9.8198504e-05
0.0349095      	-9.8466377e-05
0.0349678      	-9.8733865e-05
0.0350259      	-9.9001152e-05
0.0350838      	-9.9268284e-05
0.0351416      	-9.9535037e-05
0.0351993      	-9.9801414e-05
0.0352568      	-1.0006742e-04
0.0353141      	-1.0033304e-04
0.0353713      	-1.0059830e-04
0.0354284      	-1.0086319e-04
0.0354853      	-1.0112772e-04
0.035542       	-1.0139188e-04
0.0355986      	-1.0165567e-04
0.035655       	-1.0191911e-04
0.0357113      	-1.0218219e-04
0.0357675      	-1.0244491e-04
0.0358235      	-1.0270728e-04
0.0358794      	-1.0296929e-04
0.0359351      	-1.0323096e-04
0.0359907      	-1.0349227e-04
0.0360462      	-1.0375291e-04
0.0361015      	-1.0401313e-04
0.0361566      	-1.0427301e-04
0.0362117      	-1.0453255e-04
0.0362666      	-1.0479175e-04
0.0363213      	-1.0505061e-04
0.0363759      	-1.0530914e-04
0.0364304      	-1.0556734e-04
0.0364848      	-1.0582520e-04
0.036539       	-1.0608273e-04
0.0365931      	-1.0633993e-04
0.0366471      	-1.0659681e-04
0.0367009      	-1.0685336e-04
0.0367546      	-1.0710959e-04
0.0368082      	-1.0736549e-04
0.0368616      	-1.0762108e-04
0.0369149      	-1.0787634e-04
0.0369681      	-1.0813129e-04
0.0370212      	-1.0838592e-04
0.0370741      	-1.0864024e-04
0.037127       	-1.0889424e-04
0.0371797      	-1.0914794e-04
0.0372322      	-1.0940132e-04
0.0372847      	-1.0965440e-04
0.037337       	-1.0990717e-04
0.0373892      	-1.1015963e-04
0.0374413      	-1.1041179e-04
0.0374933      	-1.1066365e-04
0.0375451      	-1.1091521e-04
0.0375969      	-1.1116647e-04
0.0376485      	-1.1141743e-04
0.0377         	-1.1166809e-04
0.0377514      	-1.1191846e-04
0.0378026      	-1.1216854e-04
0.0378538      	-1.1241832e-04
0.0379048      	-1.1266781e-04
0.0379558      	-1.1291701e-04
0.0380066      	-1.1316598e-04
0.0380573      	-1.1341499e-04
0.0381079      	-1.1366372e-04
0.0381584      	-1.1391216e-04
0.0382088      	-1.1416031e-04
0.038259       	-1.1440819e-04
0.0383092      	-1.1465578e-04
0.0383592      	-1.1490310e-04
0.0384092      	-1.1515013e-04
0.038459       	-1.1539689e-04
0.0385087      	-1.1564337e-04
0.0385583      	-1.1588958e-04
0.0386079      	-1.1613551e-04
0.0386573      	-1.1638117e-04
0.0387066      	-1.1662656e-04
0.0387558      	-1.1687168e-04
0.0388049      	-1.1711653e-04
0.0388539      	-1.1736111e-04
0.0389028      	-1.1760543e-04
0.0389516      	-1.1784948e-04
0.0390003      	-1.1809326e-04
0.0390488      	-1.1833641e-04
0.0390973      	-1.1857929e-04
0.0391457      	-1.1882191e-04
0.039194       	-1.1906427e-04
0.0392422      	-1.1930638e-04
0.0392903      	-1.1954823e-04
0.0393383      	-1.1978982e-04
0.0393862      	-1.2003116e-04
0.039434       	-1.2027224e-04
0.0394817      	-1.2051307e-04
0.0395293      	-1.2075365e-04
0.0395769      	-1.2099398e-04
0.0396243      	-1.2123406e-04
0.0396716      	-1.2147389e-04
0.0397189      	-1.2171347e-04
0.039766       	-1.2195281e-04
0.0398131      	-1.2219190e-04
0.03986        	-1.2243075e-04
0.0399069      	-1.2266935e-04
0.0399537      	-1.2290771e-04
0.0400004      	-1.2314585e-04
0.040047       	-1.2338634e-04
0.0400935      	-1.2362659e-04
0.0401399      	-1.2386660e-04
0.0401862      	-1.2410636e-04
0.0402324      	-1.2434588e-04
0.0402786      	-1.2458517e-04
0.0403246      	-1.2482421e-04
0.0403706      	-1.2506302e-04
0.0404165      	-1.2530159e-04
0.0404623      	-1.2553992e-04
0.040508       	-1.2577802e-04
0.0405536      	-1.2601589e-04
0.0405992      	-1.2625352e-04
0.0406446      	-1.2649092e-04
0.04069        	-1.2672809e-04
0.0407353      	-1.2696502e-04
0.0407805      	-1.2720173e-04
0.0408256      	-1.2743821e-04
0.0408706      	-1.2767446e-04
0.0409155      	-1.2791049e-04
0.0409604      	-1.2814629e-04
0.0410052      	-1.2838186e-04
0.0410499      	-1.2861721e-04
0.0410945      	-1.2885234e-04
0.041139       	-1.2908724e-04
0.0411835      	-1.2932192e-04
0.0412279      	-1.2955639e-04
0.0412721      	-1.2979063e-04
0.0413164      	-1.3002465e-04
0.0413605      	-1.3025845e-04
0.0414045      	-1.3049204e-04
0.0414485      	-1.3072541e-04
0.0414924      	-1.3095856e-04
0.0415362      	-1.3119150e-04
0.04158        	-1.3142422e-04
0.0416236      	-1.3165673e-04
0.0416672      	-1.3188902e-04
0.0417107      	-1.3212111e-04
0.0417542      	-1.3235298e-04
0.0417975      	-1.3258464e-04
0.0418408      	-1.3281610e-04
0.041884       	-1.3304734e-04
0.0419271      	-1.3327837e-04
0.0419702      	-1.3350920e-04
0.0420132      	-1.3373971e-04
0.0420561      	-1.3396977e-04
0.0420989      	-1.3419962e-04
0.0421417      	-1.3442926e-04
0.0421843      	-1.3465870e-04
0.042227       	-1.3488794e-04
0.0422695      	-1.3511698e-04
0.042312       	-1.3534581e-04
0.0423544      	-1.3557445e-04
0.0423967      	-1.3580289e-04
0.0424389      	-1.3603112e-04
0.0424811      	-1.3625916e-04
0.0425232      	-1.3648700e-04
0.0425653      	-1.3671464e-04
0.0426073      	-1.3694209e-04
0.0426492      	-1.3716934e-04
0.042691       	-1.3739640e-04
0.0427328      	-1.3762326e-04
0.0427745      	-1.3784993e-04
0.0428161      	-1.3807640e-04
0.0428576      	-1.3830268e-04
0.0428991      	-1.3852878e-04
0.0429405      	-1.3875468e-04
0.0429819      	-1.3898038e-04
0.0430232      	-1.3920610e-04
0.0430644      	-1.3943179e-04
0.0431056      	-1.3965729e-04
0.0431467      	-1.3988259e-04
0.0431877      	-1.4010771e-04
0.0432286      	-1.4033265e-04
0.0432695      	-1.4055739e-04
0.0433104      	-1.4078195e-04
0.0433511      	-1.4100633e-04
0.0433918      	-1.4123052e-04
0.0434324      	-1.4145453e-04
0.043473       	-1.4167835e-04
0.0435135      	-1.4190199e-04
0.0435539      	-1.4212545e-04
0.0435943      	-1.4234872e-04
0.0436346      	-1.4257182e-04
0.0436749      	-1.4279473e-04
0.0437151      	-1.4301747e-04
0.0437552      	-1.4324002e-04
0.0437952      	-1.4346240e-04
0.0438352      	-1.4368460e-04
0.0438752      	-1.4390662e-04
0.0439151      	-1.4412846e-04
0.0439549      	-1.4435013e-04
0.0439946      	-1.4457162e-04
0.0440343      	-1.4479294e-04
0.0440739      	-1.4501408e-04
0.0441135      	-1.4523505e-04
0.044153       	-1.4545584e-04
0.0441925      	-1.4567646e-04
0.0442319      	-1.4589691e-04
0.0442712      	-1.4611718e-04
0.0443105      	-1.4633729e-04
0.0443497      	-1.4655722e-04
0.0443888      	-1.4677698e-04
0.0444279      	-1.4699657e-04
0.044467       	-1.4721600e-04
0.0445059      	-1.4743525e-04
0.0445449      	-1.4765434e-04
0.0445837      	-1.4787326e-04
0.0446225      	-1.4809201e-04
0.0446613      	-1.4831059e-04
0.0447         	-1.4852901e-04
0.0447386      	-1.4874726e-04
0.0447772      	-1.4896534e-04
0.0448157      	-1.4918326e-04
0.0448542      	-1.4940102e-04
0.0448926      	-1.4961861e-04
0.0449309      	-1.4983604e-04
0.0449692      	-1.5005331e-04
0.0450075      	-1.5027042e-04
0.0450457      	-1.5048736e-04
0.0450838      	-1.5070414e-04
0.0451219      	-1.5092076e-04
0.0451599      	-1.5113722e-04
0.0451979      	-1.5135352e-04
0.0452358      	-1.5156966e-04
0.0452736      	-1.5178564e-04
0.0453114      	-1.5200146e-04
0.0453492      	-1.5221713e-04
0.0453869      	-1.5243263e-04
0.0454245      	-1.5264798e-04
0.0454621      	-1.5286317e-04
0.0454997      	-1.5307821e-04
0.0455371      	-1.5329309e-04
0.0455746      	-1.5350782e-04
0.045612       	-1.5372239e-04
0.0456493      	-1.5393680e-04
0.0456866      	-1.5415107e-04
0.0457238      	-1.5436517e-04
0.045761       	-1.5457913e-04
0.0457981      	-1.5479293e-04
0.0458351      	-1.5500658e-04
0.0458722      	-1.5522008e-04
0.0459091      	-1.5543343e-04
0.0459461      	-1.5564662e-04
0.0459829      	-1.5585967e-04
0.0460197      	-1.5607238e-04
0.0460565      	-1.5628479e-04
0.0460932      	-1.5649704e-04
0.0461299      	-1.5670915e-04
0.0461665      	-1.5692112e-04
0.0462031      	-1.5713293e-04
0.0462396      	-1.5734460e-04
0.0462761      	-1.5755611e-04
0.0463125      	-1.5776749e-04
0.0463489      	-1.5797871e-04
0.0463852      	-1.5818980e-04
0.0464215      	-1.5840073e-04
0.0464577      	-1.5861152e-04
0.0464939      	-1.5882217e-04
0.04653        	-1.5903267e-04
0.0465661      	-1.5924303e-04
0.0466021      	-1.5945325e-04
0.0466381      	-1.5966332e-04
0.046674       	-1.5987325e-04
0.0467099      	-1.6008304e-04
0.0467458      	-1.6029269e-04
0.0467816      	-1.6050219e-04
0.0468173      	-1.6071155e-04
0.046853       	-1.6092078e-04
0.0468887      	-1.6112986e-04
0.0469243      	-1.6133881e-04
0.0469599      	-1.6154761e-04
0.0469954      	-1.6175627e-04
0.0470309      	-1.6196509e-04
0.0470663      	-1.6217381e-04
0.0471017      	-1.6238240e-04
0.047137       	-1.6259084e-04
0.0471723      	-1.6279915e-04
0.0472075      	-1.6300732e-04
0.0472428      	-1.6321535e-04
0.0472779      	-1.6342325e-04
0.047313       	-1.6363101e-04
0.0473481      	-1.6383863e-04
0.0473831      	-1.6404612e-04
0.0474181      	-1.6425348e-04
0.047453       	-1.6446070e-04
0.0474879      	-1.6466778e-04
0.0475228      	-1.6487473e-04
0.0475576      	-1.6508155e-04
0.0475923      	-1.6528823e-04
0.047627       	-1.6549479e-04
0.0476617      	-1.6570120e-04
0.0476964      	-1.6590749e-04
0.0477309      	-1.6611364e-04
0.0477655      	-1.6631967e-04
0.0478         	-1.6652556e-04
0.0478344      	-1.6673132e-04
0.0478689      	-1.6693695e-04
0.0479032      	-1.6714244e-04
0.0479376      	-1.6734781e-04
0.0479719      	-1.6755305e-04
0.0480061      	-1.6775816e-04
0.0480403      	-1.6796314e-04
0.0480745      	-1.6816800e-04
0.0481086      	-1.6837272e-04
0.0481427      	-1.6857732e-04
0.0481767      	-1.6878178e-04
0.0482107      	-1.6898612e-04
0.0482447      	-1.6919034e-04
0.0482786      	-1.6939442e-04
0.0483125      	-1.6959838e-04
0.0483463      	-1.6980222e-04
0.0483801      	-1.7000593e-04
0.0484138      	-1.7020951e-04
0.0484476      	-1.7041297e-04
0.0484812      	-1.7061630e-04
0.0485149      	-1.7081951e-04
0.0485485      	-1.7102259e-04
0.048582       	-1.7122555e-04
0.0486155      	-1.7142839e-04
0.048649       	-1.7163110e-04
0.0486824      	-1.7183369e-04
0.0487158      	-1.7203616e-04
0.0487492      	-1.7223850e-04
0.0487825      	-1.7244072e-04
0.0488158      	-1.7264282e-04
0.048849       	-1.7284480e-04
0.0488822      	-1.7304666e-04
0.0489154      	-1.7324839e-04
0.0489485      	-1.7345001e-04
0.0489816      	-1.7365150e-04
0.0490146      	-1.7385288e-04
0.0490476      	-1.7405413e-04
0.0490806      	-1.7425527e-04
0.0491135      	-1.7445628e-04
0.0491464      	-1.7465718e-04
0.0491793      	-1.7485796e-04
0.0492121      	-1.7505862e-04
0.0492449      	-1.7525916e-04
0.0492776      	-1.7545958e-04
0.0493103      	-1.7565989e-04
0.049343       	-1.7586008e-04
0.0493756      	-1.7606015e-04
0.0494082      	-1.7626010e-04
0.0494408      	-1.7645994e-04
0.0494733      	-1.7665966e-04
0.0495058      	-1.7685927e-04
0.0495382      	-1.7705876e-04
0.0495706      	-1.7725813e-04
0.049603       	-1.7745739e-04
0.0496353      	-1.7765654e-04
0.0496676      	-1.7785557e-04
0.0496999      	-1.7805448e-04
0.0497321      	-1.7825328e-04
0.0497643      	-1.7845197e-04
0.0497965      	-1.7865054e-04
0.0498286      	-1.7884900e-04
0.0498607      	-1.7904735e-04
0.0498927      	-1.7924559e-04
0.0499247      	-1.7944371e-04
0.0499567      	-1.7964172e-04
0.0499886      	-1.7983961e-04
0.0500206      	-1.7996323e-04
0.0500524      	-1.8004581e-04
0.0500843      	-1.8012836e-04
0.0501162      	-1.8021087e-04
0.050148       	-1.8029334e-04
0.0501798      	-1.8037577e-04
0.0502116      	-1.8045816e-04
0.0502434      	-1.8054052e-04
0.0502752      	-1.8062284e-04
0.050307       	-1.8070512e-04
0.0503388      	-1.8078737e-04
0.0503705      	-1.8086958e-04
0.0504022      	-1.8095175e-04
0.0504339      	-1.8103388e-04
0.0504656      	-1.8111598e-04
0.0504973      	-1.8119804e-04
0.050529       	-1.8128006e-04
0.0505606      	-1.8136204e-04
0.0505923      	-1.8144399e-04
0.0506239      	-1.8152590e-04
0.0506555      	-1.8160777e-04
0.0506871      	-1.8168961e-04
0.0507187      	-1.8177141e-04
0.0507503      	-1.8185317e-04
0.0507818      	-1.8193490e-04
0.0508134      	-1.8201658e-04
0.0508449      	-1.8209824e-04
0.0508764      	-1.8217985e-04
0.0509079      	-1.8226143e-04
0.0509394      	-1.8234298e-04
0.0509708      	-1.8242448e-04
0.0510023      	-1.8250597e-04
0.0510337      	-1.8258772e-04
0.0510652      	-1.8266943e-04
0.0510966      	-1.8275111e-04
0.051128       	-1.8283275e-04
0.0511594      	-1.8291435e-04
0.0511907      	-1.8299591e-04
0.0512221      	-1.8307744e-04
0.0512534      	-1.8315894e-04
0.0512848      	-1.8324039e-04
0.0513161      	-1.8332181e-04
0.0513474      	-1.8340320e-04
0.0513787      	-1.8348455e-04
0.0514099      	-1.8356586e-04
0.0514412      	-1.8364713e-04
0.0514725      	-1.8372837e-04
0.0515037      	-1.8380958e-04
0.0515349      	-1.8389075e-04
0.0515661      	-1.8397188e-04
0.0515973      	-1.8405297e-04
0.0516285      	-1.8413404e-04
0.0516596      	-1.8421506e-04
0.0516908      	-1.8429605e-04
0.0517219      	-1.8437700e-04
0.051753       	-1.8445792e-04
0.0517842      	-1.8453881e-04
0.0518153      	-1.8461965e-04
0.0518463      	-1.8470047e-04
0.0518774      	-1.8478124e-04
0.0519085      	-1.8486198e-04
0.0519395      	-1.8494269e-04
0.0519705      	-1.8502336e-04
0.0520015      	-1.8510400e-04
0.0520325      	-1.8518460e-04
0.0520635      	-1.8526516e-04
0.0520945      	-1.8534569e-04
0.0521255      	-1.8542619e-04
0.0521564      	-1.8550665e-04
0.0521873      	-1.8558707e-04
0.0522183      	-1.8566747e-04
0.0522492      	-1.8574782e-04
0.0522801      	-1.8582814e-04
0.0523109      	-1.8590843e-04
0.0523418      	-1.8598868e-04
0.0523727      	-1.8606890e-04
0.0524035      	-1.8614908e-04
0.0524343      	-1.8622923e-04
0.0524651      	-1.8630934e-04
0.0524959      	-1.8638942e-04
0.0525267      	-1.8646947e-04
0.0525575      	-1.8654948e-04
0.0525883      	-1.8662945e-04
0.052619       	-1.8670939e-04
0.0526497      	-1.8678930e-04
0.0526805      	-1.8686918e-04
0.0527112      	-1.8694901e-04
0.0527419      	-1.8702882e-04
0.0527725      	-1.8710859e-04
0.0528032      	-1.8718833e-04
0.0528339      	-1.8726803e-04
0.0528645      	-1.8734770e-04
0.0528951      	-1.8742734e-04
0.0529257      	-1.8750694e-04
0.0529563      	-1.8758651e-04
0.0529869      	-1.8766604e-04
0.0530175      	-1.8774554e-04
0.0530481      	-1.8782501e-04
0.0530786      	-1.8790444e-04
0.0531092      	-1.8798384e-04
0.0531397      	-1.8806320e-04
0.0531702      	-1.8814254e-04
0.0532007      	-1.8822184e-04
0.0532312      	-1.8830110e-04
0.0532617      	-1.8838033e-04
0.0532921      	-1.8845953e-04
0.0533226      	-1.8853870e-04
0.053353       	-1.8861783e-04
0.0533834      	-1.8869693e-04
0.0534138      	-1.8877599e-04
0.0534442      	-1.8885503e-04
0.0534746      	-1.8893403e-04
0.053505       	-1.8901299e-04
0.0535354      	-1.8909193e-04
0.0535657      	-1.8917083e-04
0.053596       	-1.8924970e-04
0.0536264      	-1.8932853e-04
0.0536567      	-1.8940733e-04
0.053687       	-1.8948610e-04
0.0537172      	-1.8956484e-04
0.0537475      	-1.8964354e-04
0.0537778      	-1.8972221e-04
0.053808       	-1.8980085e-04
0.0538383      	-1.8987946e-04
0.0538685      	-1.8995803e-04
0.0538987      	-1.9003657e-04
0.0539289      	-1.9011508e-04
0.0539591      	-1.9019356e-04
0.0539892      	-1.9027200e-04
0.0540194      	-1.9035022e-04
0.0540495      	-1.9042830e-04
0.0540797      	-1.9050634e-04
0.0541098      	-1.9058436e-04
0.0541399      	-1.9066234e-04
0.05417        	-1.9074029e-04
0.0542001      	-1.9081821e-04
0.0542302      	-1.9089609e-04
0.0542602      	-1.9097395e-04
0.0542903      	-1.9105177e-04
0.0543203      	-1.9112956e-04
0.0543503      	-1.9120732e-04
0.0543803      	-1.9128505e-04
0.0544103      	-1.9136274e-04
0.0544403      	-1.9144041e-04
0.0544703      	-1.9151804e-04
0.0545002      	-1.9159564e-04
0.0545302      	-1.9167321e-04
0.0545601      	-1.9175075e-04
0.0545901      	-1.9182826e-04
0.05462        	-1.9190574e-04
0.0546499      	-1.9198318e-04
0.0546798      	-1.9206059e-04
0.0547096      	-1.9213798e-04
0.0547395      	-1.9221533e-04
0.0547694      	-1.9229265e-04
0.0547992      	-1.9236994e-04
0.054829       	-1.9244719e-04
0.0548589      	-1.9252442e-04
0.0548887      	-1.9260162e-04
0.0549184      	-1.9267878e-04
0.0549482      	-1.9275592e-04
0.054978       	-1.9283302e-04
0.0550078      	-1.9291017e-04
0.0550375      	-1.9298751e-04
0.0550672      	-1.9306482e-04
0.055097       	-1.9314209e-04
0.0551267      	-1.9321934e-04
0.0551564      	-1.9329656e-04
0.0551861      	-1.9337374e-04
0.0552157      	-1.9345089e-04
0.0552454      	-1.9352802e-04
0.055275       	-1.9360511e-04
0.0553047      	-1.9368217e-04
0.0553343      	-1.9375920e-04
0.0553639      	-1.9383620e-04
0.0553935      	-1.9391317e-04
0.0554231      	-1.9399011e-04
0.0554527      	-1.9406702e-04
0.0554823      	-1.9414390e-04
0.0555118      	-1.9422074e-04
0.0555414      	-1.9429756e-04
0.0555709      	-1.9437435e-04
0.0556004      	-1.9445111e-04
0.0556299      	-1.9452783e-04
0.0556594      	-1.9460453e-04
0.0556889      	-1.9468119e-04
0.0557184      	-1.9475783e-04
0.0557479      	-1.9483443e-04
0.0557773      	-1.9491101e-04
0.0558068      	-1.9498755e-04
0.0558362      	-1.9506407e-04
0.0558656      	-1.9514055e-04
0.055895       	-1.9521701e-04
0.0559244      	-1.9529343e-04
0.0559538      	-1.9536983e-04
0.0559832      	-1.9544620e-04
0.0560125      	-1.9552253e-04
0.0560419      	-1.9559884e-04
0.0560712      	-1.9567511e-04
0.0561005      	-1.9575136e-04
0.0561298      	-1.9582758e-04
0.0561591      	-1.9590376e-04
0.0561884      	-1.9597992e-04
0.0562177      	-1.9605605e-04
0.056247       	-1.9613215e-04
0.0562762      	-1.9620821e-04
0.0563055      	-1.9628425e-04
0.0563347      	-1.9636026e-04
0.0563639      	-1.9643624e-04
0.0563932      	-1.9651219e-04
0.0564224      	-1.9658812e-04
0.0564515      	-1.9666401e-04
0.0564807      	-1.9673987e-04
0.0565099      	-1.9681570e-04
0.056539       	-1.9689151e-04
0.0565682      	-1.9696728e-04
0.0565973      	-1.9704303e-04
0.0566264      	-1.9711875e-04
0.0566556      	-1.9719443e-04
0.0566847      	-1.9727009e-04
0.0567137      	-1.9734572e-04
0.0567428      	-1.9742132e-04
0.0567719      	-1.9749690e-04
0.0568009      	-1.9757244e-04
0.05683        	-1.9764795e-04
0.056859       	-1.9772344e-04
0.056888       	-1.9779889e-04
0.056917       	-1.9787432e-04
0.056946       	-1.9794972e-04
0.056975       	-1.9802509e-04
0.057004       	-1.9810043e-04
0.057033       	-1.9817575e-04
0.0570619      	-1.9825103e-04
0.0570909      	-1.9832628e-04
0.0571198      	-1.9840151e-04
0.0571487      	-1.9847671e-04
0.0571776      	-1.9855188e-04
0.0572065      	-1.9862702e-04
0.0572354      	-1.9870214e-04
0.0572643      	-1.9877722e-04
0.0572932      	-1.9885228e-04
0.057322       	-1.9892730e-04
0.0573509      	-1.9900230e-04
0.0573797      	-1.9907728e-04
0.0574085      	-1.9915222e-04
0.0574374      	-1.9922713e-04
0.0574662      	-1.9930202e-04
0.057495       	-1.9937688e-04
0.0575237      	-1.9945171e-04
0.0575525      	-1.9952651e-04
0.0575813      	-1.9960129e-04
0.05761        	-1.9967603e-04
0.0576388      	-1.9975075e-04
0.0576675      	-1.9982544e-04
0.0576962      	-1.9990010e-04
0.0577249      	-1.9997474e-04
0.0577536      	-2.0004935e-04
0.0577823      	-2.0012393e-04
0.057811       	-2.0019848e-04
0.0578396      	-2.0027300e-04
0.0578683      	-2.0034750e-04
0.0578969      	-2.0042196e-04
0.0579255      	-2.0049640e-04
0.0579542      	-2.0057082e-04
0.0579828      	-2.0064520e-04
0.0580114      	-2.0071945e-04
0.05804        	-2.0079349e-04
0.0580685      	-2.0086751e-04
0.0580971      	-2.0094150e-04
0.0581257      	-2.0101546e-04
0.0581542      	-2.0108939e-04
0.0581827      	-2.0116330e-04
0.0582113      	-2.0123718e-04
0.0582398      	-2.0131104e-04
0.0582683      	-2.0138486e-04
0.0582968      	-2.0145866e-04
0.0583253      	-2.0153244e-04
0.0583537      	-2.0160618e-04
0.0583822      	-2.0167990e-04
0.0584107      	-2.0175359e-04
0.0584391      	-2.0182726e-04
0.0584675      	-2.0190089e-04
0.0584959      	-2.0197451e-04
0.0585244      	-2.0204809e-04
0.0585528      	-2.0212165e-04
0.0585811      	-2.0219518e-04
0.0586095      	-2.0226868e-04
0.0586379      	-2.0234216e-04
0.0586663      	-2.0241561e-04
0.0586946      	-2.0248903e-04
0.0587229      	-2.0256243e-04
0.0587513      	-2.0263580e-04
0.0587796      	-2.0270914e-04
0.0588079      	-2.0278246e-04
0.0588362      	-2.0285575e-04
0.0588645      	-2.0292902e-04
0.0588928      	-2.0300225e-04
0.058921       	-2.0307547e-04
0.0589493      	-2.0314865e-04
0.0589775      	-2.0322181e-04
0.0590058      	-2.0329500e-04
0.059034       	-2.0336839e-04
0.0590622      	-2.0344175e-04
0.0590904      	-2.0351509e-04
0.0591186      	-2.0358839e-04
0.0591468      	-2.0366168e-04
0.059175       	-2.0373493e-04
0.0592031      	-2.0380816e-04
0.0592313      	-2.0388137e-04
0.0592594      	-2.0395454e-04
0.0592876      	-2.0402770e-04
0.0593157      	-2.0410082e-04
0.0593438      	-2.0417392e-04
0.0593719      	-2.0424699e-04
0.0594         	-2.0432004e-04
0.0594281      	-2.0439306e-04
0.0594562      	-2.0446605e-04
0.0594842      	-2.0453902e-04
0.0595123      	-2.0461196e-04
0.0595403      	-2.0468488e-04
0.0595684      	-2.0475777e-04
0.0595964      	-2.0483063e-04
0.0596244      	-2.0490347e-04
0.0596524      	-2.0497628e-04
0.0596804      	-2.0504907e-04
0.0597084      	-2.0512183e-04
0.0597364      	-2.0519457e-04
0.0597643      	-2.0526727e-04
0.0597923      	-2.0533996e-04
0.0598202      	-2.0541262e-04
0.0598482      	-2.0548525e-04
0.0598761      	-2.0555785e-04
0.059904       	-2.0563043e-04
0.0599319      	-2.0570299e-04
0.0599598      	-2.0577552e-04
0.0599877      	-2.0584802e-04
0.0600156      	-2.0592050e-04
0.0600434      	-2.0599295e-04
0.0600713      	-2.0606538e-04
0.0600991      	-2.0613778e-04
0.060127       	-2.0621016e-04