# Region type : patch Lc2_sub1
# Faces        : 64
# Area         : 1.2160938e-06
# Scale factor : 1.0000000e+00
# Time         	sum(phi)
6e-05          	2.3527483e-10
0.000132       	5.1875460e-10
0.0002184      	8.5833745e-10
0.00032208     	1.2673877e-09
0.000446496    	1.7581116e-09
0.000595795    	2.3496892e-09
0.000774954    	3.0587352e-09
0.000989945    	3.9105067e-09
0.00124793     	4.9245570e-09
0.00155752     	6.1290839e-09
0.00192903     	7.5386331e-09
0.00237483     	9.1716184e-09
0.0029098      	1.1017693e-08
0.00355176     	1.3064932e-08
0.00429765     	1.5196984e-08
0.00475382     	1.6430814e-08
0.00497048     	1.6979149e-08
0.00518408     	1.7508199e-08
0.00542151     	1.8066747e-08
0.00568516     	1.8672223e-08
0.00595414     	1.9258776e-08
0.0062144      	1.9817701e-08
0.00646879     	2.0339425e-08
0.00672414     	2.0857722e-08
0.00698347     	2.1362472e-08
0.0072456      	2.1869527e-08
0.0075082      	2.2359437e-08
0.00777027     	2.2850533e-08
0.00803213     	2.3327213e-08
0.00829441     	2.3810466e-08
0.00855734     	2.4284282e-08
0.00882083     	2.4768232e-08
0.00908463     	2.5245818e-08
0.00934861     	2.5736996e-08
0.00961272     	2.6223557e-08
0.00987701     	2.6724889e-08
0.0101415      	2.7222711e-08
0.0104061      	2.7736087e-08
0.0106708      	2.8248347e-08
0.0109356      	2.8778317e-08
0.0112005      	2.9308226e-08
0.0114655      	2.9856661e-08
0.0117307      	3.0405628e-08
0.0119958      	3.0973557e-08
0.0122611      	3.1544566e-08
0.0125265      	3.2134649e-08
0.0127919      	3.2725371e-08
0.0130543      	3.3327609e-08
0.0133099      	3.3912600e-08
0.0135591      	3.4500134e-08
0.0138025      	3.5073064e-08
0.01404        	3.5647712e-08
0.0142718      	3.6209214e-08
0.0144983      	3.6771699e-08
0.0147199      	3.7319485e-08
0.0149367      	3.7868094e-08
0.0151492      	3.8400841e-08
0.0153574      	3.8933712e-08
0.0155616      	3.9452884e-08
0.0157619      	3.9972765e-08
0.0159587      	4.0479441e-08
0.016152       	4.0986764e-08
0.0163419      	4.1481273e-08
0.0165288      	4.1976353e-08
0.0167125      	4.2459028e-08
0.0168934      	4.2942274e-08
0.0170714      	4.3414512e-08
0.0172468      	4.3888674e-08
0.0174196      	4.4351273e-08
0.0175899      	4.4814447e-08
0.0177578      	4.5266437e-08
0.0179234      	4.5719055e-08
0.0180867      	4.6159706e-08
0.0182479      	4.6600007e-08
0.0184071      	4.7029852e-08
0.0185642      	4.7460411e-08
0.0187193      	4.7880858e-08
0.0188726      	4.8302099e-08
0.019024       	4.8713920e-08
0.0191736      	4.9128393e-08
0.0193216      	4.9533387e-08
0.0194678      	4.9939283e-08
0.0196124      	5.0336004e-08
0.0197555      	5.0733706e-08
0.019897       	5.1122541e-08
0.020037       	5.1511895e-08
0.0201755      	5.1891137e-08
0.0203126      	5.2271506e-08
0.0204484      	5.2643551e-08
0.0205828      	5.3016776e-08
0.0207159      	5.3381928e-08
0.0208477      	5.3748334e-08
0.0209783      	5.4106927e-08
0.0211076      	5.4466845e-08
0.0212358      	5.4819169e-08
0.0213628      	5.5172859e-08
0.0214886      	5.5519163e-08
0.0216134      	5.5866883e-08
0.021737       	5.6207429e-08
0.0218597      	5.6549452e-08
0.0219812      	5.6884512e-08
0.0221018      	5.7222767e-08
0.0222213      	5.7554532e-08
0.0223399      	5.7887829e-08
0.0224576      	5.8214495e-08
0.0225742      	5.8542726e-08
0.02269        	5.8864495e-08
0.0228049      	5.9187868e-08
0.0229189      	5.9504947e-08
0.023032       	5.9823123e-08
0.0231443      	6.0133771e-08
0.0232558      	6.0446089e-08
0.0233664      	6.0752404e-08
0.0234763      	6.1060397e-08
0.0235853      	6.1362516e-08
0.0236936      	6.1666333e-08
0.0238011      	6.1964410e-08
0.0239079      	6.2264217e-08
0.024014       	6.2558421e-08
0.0241193      	6.2854373e-08
0.0242239      	6.3144829e-08
0.0243279      	6.3437037e-08
0.0244311      	6.3723850e-08
0.0245337      	6.4012424e-08
0.0246356      	6.4295708e-08
0.0247369      	6.4580769e-08
0.0248375      	6.4860651e-08
0.0249375      	6.5142329e-08
0.0250369      	6.5419619e-08
0.0251357      	6.5699868e-08
0.0252339      	6.5975111e-08
0.0253315      	6.6252137e-08
0.0254285      	6.6524243e-08
0.0255249      	6.6798135e-08
0.0256208      	6.7067203e-08
0.0257161      	6.7338065e-08
0.0258108      	6.7604188e-08
0.0259051      	6.7872112e-08
0.0259987      	6.8135387e-08
0.0260919      	6.8398675e-08
0.0261846      	6.8657362e-08
0.0262767      	6.8917852e-08
0.0263683      	6.9173821e-08
0.0264595      	6.9431584e-08
0.0265501      	6.9684882e-08
0.0266403      	6.9939977e-08
0.02673        	7.0190677e-08
0.0268192      	7.0443174e-08
0.0269079      	7.0691348e-08
0.0269962      	7.0941326e-08
0.0270841      	7.1188736e-08
0.0271715      	7.1438009e-08
0.0272584      	7.1683053e-08
0.027345       	7.1929876e-08
0.0274311      	7.2172525e-08
0.0275167      	7.2416947e-08
0.027602       	7.2657249e-08
0.0276868      	7.2899318e-08
0.0277713      	7.3137325e-08
0.0278553      	7.3377100e-08
0.0279389      	7.3612870e-08
0.0280222      	7.3849944e-08
0.028105       	7.4081792e-08
0.0281875      	7.4315401e-08
0.0282696      	7.4545106e-08
0.0283513      	7.4776554e-08
0.0284326      	7.5004138e-08
0.0285136      	7.5233455e-08
0.0285942      	7.5458951e-08
0.0286744      	7.5686177e-08
0.0287543      	7.5909631e-08
0.0288339      	7.6134812e-08
0.0289131      	7.6356272e-08
0.0289919      	7.6579463e-08
0.0290705      	7.6798979e-08
0.0291486      	7.7020213e-08
0.0292265      	7.7237804e-08
0.029304       	7.7457099e-08
0.0293812      	7.7672787e-08
0.0294581      	7.7890168e-08
0.0295346      	7.8103980e-08
0.0296109      	7.8319481e-08
0.0296868      	7.8531451e-08
0.0297624      	7.8745107e-08
0.0298378      	7.8955276e-08
0.0299128      	7.9167128e-08
0.0299875      	7.9375536e-08
0.0300619      	7.9587012e-08
0.0301361      	7.9795347e-08
0.0302099      	8.0005334e-08
0.0302834      	8.0211930e-08
0.0303567      	8.0420169e-08
0.0304297      	8.0625049e-08
0.0305024      	8.0831564e-08
0.0305748      	8.1034753e-08
0.030647       	8.1239570e-08
0.0307189      	8.1441093e-08
0.0307905      	8.1644241e-08
0.0308618      	8.1844130e-08
0.0309329      	8.2045640e-08
0.0310038      	8.2243840e-08
0.0310743      	8.2442108e-08
0.0311446      	8.2637183e-08
0.0312147      	8.2833874e-08
0.0312845      	8.3027391e-08
0.0313541      	8.3222508e-08
0.0314234      	8.3414475e-08
0.0314924      	8.3608030e-08
0.0315613      	8.3798463e-08
0.0316298      	8.3990479e-08
0.0316982      	8.4179402e-08
0.0317663      	8.4369905e-08
0.0318342      	8.4557345e-08
0.0319018      	8.4746368e-08
0.0319692      	8.4932363e-08
0.0320364      	8.5119937e-08
0.0321034      	8.5304506e-08
0.0321701      	8.5490642e-08
0.0322366      	8.5673797e-08
0.0323029      	8.5858509e-08
0.032369       	8.6040259e-08
0.0324348      	8.6223554e-08
0.0325005      	8.6403912e-08
0.0325659      	8.6585808e-08
0.0326311      	8.6764792e-08
0.0326961      	8.6945310e-08
0.0327609      	8.7122943e-08
0.0328255      	8.7302107e-08
0.0328899      	8.7478412e-08
0.0329541      	8.7656246e-08
0.0330181      	8.7831696e-08
0.0330819      	8.8009801e-08
0.0331454      	8.8185089e-08
0.0332088      	8.8361877e-08
0.033272       	8.8535861e-08
0.033335       	8.8711339e-08
0.0333978      	8.8884037e-08
0.0334604      	8.9058222e-08
0.0335229      	8.9229646e-08
0.0335851      	8.9402553e-08
0.0336472      	8.9572721e-08
0.033709       	8.9744365e-08
0.0337707      	8.9913293e-08
0.0338322      	9.0083694e-08
0.0338935      	9.0251402e-08
0.0339547      	9.0420580e-08
0.0340156      	9.0586693e-08
0.0340764      	9.0753121e-08
0.034137       	9.0916902e-08
0.0341974      	9.1082146e-08
0.0342577      	9.1244755e-08
0.0343178      	9.1408816e-08
0.0343777      	9.1570256e-08
0.0344375      	9.1733140e-08
0.034497       	9.1893420e-08
0.0345564      	9.2055137e-08
0.0346157      	9.2214268e-08
0.0346748      	9.2374832e-08
0.0347337      	9.2532831e-08
0.0347925      	9.2692264e-08
0.034851       	9.2849155e-08
0.0349095      	9.3007480e-08
0.0349678      	9.3163285e-08
0.0350259      	9.3321199e-08
0.0350838      	9.3477450e-08
0.0351416      	9.3635115e-08
0.0351993      	9.3790282e-08
0.0352568      	9.3946856e-08
0.0353141      	9.4100948e-08
0.0353713      	9.4256441e-08
0.0354284      	9.4409468e-08
0.0354853      	9.4563888e-08
0.035542       	9.4715857e-08
0.0355986      	9.4869215e-08
0.035655       	9.5020139e-08
0.0357113      	9.5172450e-08
0.0357675      	9.5322345e-08
0.0358235      	9.5473621e-08
0.0358794      	9.5622498e-08
0.0359351      	9.5772754e-08
0.0359907      	9.5920631e-08
0.0360462      	9.6068640e-08
0.0361015      	9.6214040e-08
0.0361566      	9.6360818e-08
0.0362117      	9.6505245e-08
0.0362666      	9.6651038e-08
0.0363213      	9.6794490e-08
0.0363759      	9.6939299e-08
0.0364304      	9.7081780e-08
0.0364848      	9.7225611e-08
0.036539       	9.7367127e-08
0.0365931      	9.7509990e-08
0.0366471      	9.7650556e-08
0.0367009      	9.7792464e-08
0.0367546      	9.7932090e-08
0.0368082      	9.8073058e-08
0.0368616      	9.8211759e-08
0.0369149      	9.8351800e-08
0.0369681      	9.8489593e-08
0.0370212      	9.8628723e-08
0.0370741      	9.8765618e-08
0.037127       	9.8903844e-08
0.0371797      	9.9039844e-08
0.0372322      	9.9177167e-08
0.0372847      	9.9312275e-08
0.037337       	9.9448699e-08
0.0373892      	9.9582920e-08
0.0374413      	9.9718451e-08
0.0374933      	9.9851798e-08
0.0375451      	9.9986455e-08
0.0375969      	1.0011894e-07
0.0376485      	1.0025272e-07
0.0377         	1.0038434e-07
0.0377514      	1.0051726e-07
0.0378026      	1.0064804e-07
0.0378538      	1.0078011e-07
0.0379048      	1.0091006e-07
0.0379558      	1.0104130e-07
0.0380066      	1.0117061e-07
0.0380573      	1.0130247e-07
0.0381079      	1.0143222e-07
0.0381584      	1.0156325e-07
0.0382088      	1.0169217e-07
0.038259       	1.0182237e-07
0.0383092      	1.0195047e-07
0.0383592      	1.0207985e-07
0.0384092      	1.0220714e-07
0.038459       	1.0233570e-07
0.0385087      	1.0246219e-07
0.0385583      	1.0258994e-07
0.0386079      	1.0271564e-07
0.0386573      	1.0284259e-07
0.0387066      	1.0296749e-07
0.0387558      	1.0309365e-07
0.0388049      	1.0321777e-07
0.0388539      	1.0334315e-07
0.0389028      	1.0346651e-07
0.0389516      	1.0359111e-07
0.0390003      	1.0371370e-07
0.0390488      	1.0383612e-07
0.0390973      	1.0395655e-07
0.0391457      	1.0407823e-07
0.039194       	1.0419792e-07
0.0392422      	1.0431884e-07
0.0392903      	1.0443779e-07
0.0393383      	1.0455796e-07
0.0393862      	1.0467616e-07
0.039434       	1.0479559e-07
0.0394817      	1.0491305e-07
0.0395293      	1.0503173e-07
0.0395769      	1.0514846e-07
0.0396243      	1.0526641e-07
0.0396716      	1.0538242e-07
0.0397189      	1.0549964e-07
0.039766       	1.0561494e-07
0.0398131      	1.0573144e-07
0.03986        	1.0584603e-07
0.0399069      	1.0596183e-07
0.0399537      	1.0607573e-07
0.0400004      	1.0619091e-07
0.040047       	1.0631389e-07
0.0400935      	1.0643805e-07
0.0401399      	1.0656025e-07
0.0401862      	1.0668363e-07
0.0402324      	1.0680508e-07
0.0402786      	1.0692771e-07
0.0403246      	1.0704841e-07
0.0403706      	1.0717030e-07
0.0404165      	1.0729028e-07
0.0404623      	1.0741144e-07
0.040508       	1.0753069e-07
0.0405536      	1.0765111e-07
0.0405992      	1.0776963e-07
0.0406446      	1.0788933e-07
0.04069        	1.0800713e-07
0.0407353      	1.0812610e-07
0.0407805      	1.0824318e-07
0.0408256      	1.0836142e-07
0.0408706      	1.0847780e-07
0.0409155      	1.0859533e-07
0.0409604      	1.0871100e-07
0.0410052      	1.0882782e-07
0.0410499      	1.0894278e-07
0.0410945      	1.0905887e-07
0.041139       	1.0917312e-07
0.0411835      	1.0928849e-07
0.0412279      	1.0940203e-07
0.0412721      	1.0951669e-07
0.0413164      	1.0962950e-07
0.0413605      	1.0974344e-07
0.0414045      	1.0985555e-07
0.0414485      	1.0996876e-07
0.0414924      	1.1008014e-07
0.0415362      	1.1019263e-07
0.04158        	1.1030330e-07
0.0416236      	1.1041507e-07
0.0416672      	1.1052502e-07
0.0417107      	1.1063606e-07
0.0417542      	1.1074530e-07
0.0417975      	1.1085563e-07
0.0418408      	1.1096417e-07
0.041884       	1.1107380e-07
0.0419271      	1.1118163e-07
0.0419702      	1.1129056e-07
0.0420132      	1.1139729e-07
0.0420561      	1.1150417e-07
0.0420989      	1.1160928e-07
0.0421417      	1.1171547e-07
0.0421843      	1.1181990e-07
0.042227       	1.1192541e-07
0.0422695      	1.1202914e-07
0.042312       	1.1213396e-07
0.0423544      	1.1223702e-07
0.0423967      	1.1234114e-07
0.0424389      	1.1244352e-07
0.0424811      	1.1254696e-07
0.0425232      	1.1264865e-07
0.0425653      	1.1275141e-07
0.0426073      	1.1285243e-07
0.0426492      	1.1295452e-07
0.042691       	1.1305487e-07
0.0427328      	1.1315628e-07
0.0427745      	1.1325597e-07
0.0428161      	1.1335672e-07
0.0428576      	1.1345576e-07
0.0428991      	1.1355585e-07
0.0429405      	1.1365424e-07
0.0429819      	1.1375369e-07
0.0430232      	1.1385220e-07
0.0430644      	1.1395233e-07
0.0431056      	1.1405078e-07
0.0431467      	1.1415026e-07
0.0431877      	1.1424806e-07
0.0432286      	1.1434691e-07
0.0432695      	1.1444407e-07
0.0433104      	1.1454227e-07
0.0433511      	1.1463880e-07
0.0433918      	1.1473636e-07
0.0434324      	1.1483226e-07
0.043473       	1.1492920e-07
0.0435135      	1.1502447e-07
0.0435539      	1.1512077e-07
0.0435943      	1.1521542e-07
0.0436346      	1.1531111e-07
0.0436749      	1.1540514e-07
0.0437151      	1.1550021e-07
0.0437552      	1.1559364e-07
0.0437952      	1.1568809e-07
0.0438352      	1.1578092e-07
0.0438752      	1.1587477e-07
0.0439151      	1.1596701e-07
0.0439549      	1.1606027e-07
0.0439946      	1.1615192e-07
0.0440343      	1.1624460e-07
0.0440739      	1.1633567e-07
0.0441135      	1.1642777e-07
0.044153       	1.1651826e-07
0.0441925      	1.1660978e-07
0.0442319      	1.1669970e-07
0.0442712      	1.1679062e-07
0.0443105      	1.1687997e-07
0.0443497      	1.1697033e-07
0.0443888      	1.1705910e-07
0.0444279      	1.1714888e-07
0.044467       	1.1723708e-07
0.0445059      	1.1732629e-07
0.0445449      	1.1741393e-07
0.0445837      	1.1750257e-07
0.0446225      	1.1758966e-07
0.0446613      	1.1767775e-07
0.0447         	1.1776429e-07
0.0447386      	1.1785183e-07
0.0447772      	1.1793782e-07
0.0448157      	1.1802481e-07
0.0448542      	1.1811027e-07
0.0448926      	1.1819672e-07
0.0449309      	1.1828164e-07
0.0449692      	1.1836757e-07
0.0450075      	1.1845197e-07
0.0450457      	1.1853737e-07
0.0450838      	1.1862125e-07
0.0451219      	1.1870613e-07
0.0451599      	1.1878950e-07
0.0451979      	1.1887387e-07
0.0452358      	1.1895672e-07
0.0452736      	1.1904057e-07
0.0453114      	1.1912292e-07
0.0453492      	1.1920626e-07
0.0453869      	1.1928810e-07
0.0454245      	1.1937093e-07
0.0454621      	1.1945227e-07
0.0454997      	1.1953458e-07
0.0455371      	1.1961542e-07
0.0455746      	1.1969723e-07
0.045612       	1.1977757e-07
0.0456493      	1.1985889e-07
0.0456866      	1.1993874e-07
0.0457238      	1.2001958e-07
0.045761       	1.2009894e-07
0.0457981      	1.2017928e-07
0.0458351      	1.2025817e-07
0.0458722      	1.2033804e-07
0.0459091      	1.2041646e-07
0.0459461      	1.2049585e-07
0.0459829      	1.2057381e-07
0.0460197      	1.2065206e-07
0.0460565      	1.2072829e-07
0.0460932      	1.2080550e-07
0.0461299      	1.2088129e-07
0.0461665      	1.2095805e-07
0.0462031      	1.2103338e-07
0.0462396      	1.2110969e-07
0.0462761      	1.2118458e-07
0.0463125      	1.2126043e-07
0.0463489      	1.2133488e-07
0.0463852      	1.2141029e-07
0.0464215      	1.2148429e-07
0.0464577      	1.2155925e-07
0.0464939      	1.2163282e-07
0.04653        	1.2170734e-07
0.0465661      	1.2178047e-07
0.0466021      	1.2185456e-07
0.0466381      	1.2192726e-07
0.046674       	1.2200092e-07
0.0467099      	1.2207319e-07
0.0467458      	1.2214643e-07
0.0467816      	1.2221828e-07
0.0468173      	1.2229109e-07
0.046853       	1.2236253e-07
0.0468887      	1.2243494e-07
0.0469243      	1.2250597e-07
0.0469599      	1.2257797e-07
0.0469954      	1.2264861e-07
0.0470309      	1.2272129e-07
0.0470663      	1.2279277e-07
0.0471017      	1.2286521e-07
0.047137       	1.2293629e-07
0.0471723      	1.2300831e-07
0.0472075      	1.2307899e-07
0.0472428      	1.2315062e-07
0.0472779      	1.2322090e-07
0.047313       	1.2329213e-07
0.0473481      	1.2336202e-07
0.0473831      	1.2343286e-07
0.0474181      	1.2350237e-07
0.047453       	1.2357283e-07
0.0474879      	1.2364195e-07
0.0475228      	1.2371200e-07
0.0475576      	1.2378074e-07
0.0475923      	1.2385041e-07
0.047627       	1.2391876e-07
0.0476617      	1.2398805e-07
0.0476964      	1.2405603e-07
0.0477309      	1.2412494e-07
0.0477655      	1.2419254e-07
0.0478         	1.2426108e-07
0.0478344      	1.2432832e-07
0.0478689      	1.2439649e-07
0.0479032      	1.2446337e-07
0.0479376      	1.2453117e-07
0.0479719      	1.2459769e-07
0.0480061      	1.2466513e-07
0.0480403      	1.2473129e-07
0.0480745      	1.2479838e-07
0.0481086      	1.2486419e-07
0.0481427      	1.2493092e-07
0.0481767      	1.2499638e-07
0.0482107      	1.2506275e-07
0.0482447      	1.2512785e-07
0.0482786      	1.2519387e-07
0.0483125      	1.2525862e-07
0.0483463      	1.2532429e-07
0.0483801      	1.2538869e-07
0.0484138      	1.2545401e-07
0.0484476      	1.2551806e-07
0.0484812      	1.2558303e-07
0.0485149      	1.2564675e-07
0.0485485      	1.2571137e-07
0.048582       	1.2577474e-07
0.0486155      	1.2583902e-07
0.048649       	1.2590206e-07
0.0486824      	1.2596600e-07
0.0487158      	1.2602870e-07
0.0487492      	1.2609231e-07
0.0487825      	1.2615468e-07
0.0488158      	1.2621796e-07
0.048849       	1.2628001e-07
0.0488822      	1.2634296e-07
0.0489154      	1.2640468e-07
0.0489485      	1.2646731e-07
0.0489816      	1.2652871e-07
0.0490146      	1.2659102e-07
0.0490476      	1.2665210e-07
0.0490806      	1.2671408e-07
0.0491135      	1.2677485e-07
0.0491464      	1.2683650e-07
0.0491793      	1.2689695e-07
0.0492121      	1.2695829e-07
0.0492449      	1.2701842e-07
0.0492776      	1.2707944e-07
0.0493103      	1.2713925e-07
0.049343       	1.2719995e-07
0.0493756      	1.2725945e-07
0.0494082      	1.2731983e-07
0.0494408      	1.2737902e-07
0.0494733      	1.2743908e-07
0.0495058      	1.2749795e-07
0.0495382      	1.2755771e-07
0.0495706      	1.2761626e-07
0.049603       	1.2767571e-07
0.0496353      	1.2773397e-07
0.0496676      	1.2779311e-07
0.0496999      	1.2785106e-07
0.0497321      	1.2790988e-07
0.0497643      	1.2796752e-07
0.0497965      	1.2802604e-07
0.0498286      	1.2808338e-07
0.0498607      	1.2814160e-07
0.0498927      	1.2819865e-07
0.0499247      	1.2825657e-07
0.0499567      	1.2831332e-07
0.0499886      	1.2837095e-07
0.0500206      	1.2814936e-07
0.0500524      	1.2777579e-07
0.0500843      	1.2740286e-07
0.0501162      	1.2703200e-07
0.050148       	1.2666134e-07
0.0501798      	1.2629238e-07
0.0502116      	1.2592335e-07
0.0502434      	1.2555580e-07
0.0502752      	1.2518804e-07
0.050307       	1.2482168e-07
0.0503388      	1.2445504e-07
0.0503705      	1.2408977e-07
0.0504022      	1.2372422e-07
0.0504339      	1.2336005e-07
0.0504656      	1.2299562e-07
0.0504973      	1.2263260e-07
0.050529       	1.2226937e-07
0.0505606      	1.2190759e-07
0.0505923      	1.2154566e-07
0.0506239      	1.2118524e-07
0.0506555      	1.2082473e-07
0.0506871      	1.2046578e-07
0.0507187      	1.2010679e-07
0.0507503      	1.1974942e-07
0.0507818      	1.1939209e-07
0.0508134      	1.1903646e-07
0.0508449      	1.1868091e-07
0.0508764      	1.1832711e-07
0.0509079      	1.1797347e-07
0.0509394      	1.1762164e-07
0.0509708      	1.1727002e-07
0.0510023      	1.1692037e-07
0.0510337      	1.1657208e-07
0.0510652      	1.1622573e-07
0.0510966      	1.1587970e-07
0.051128       	1.1553565e-07
0.0511594      	1.1519200e-07
0.0511907      	1.1485038e-07
0.0512221      	1.1450920e-07
0.0512534      	1.1417012e-07
0.0512848      	1.1383152e-07
0.0513161      	1.1349508e-07
0.0513474      	1.1315918e-07
0.0513787      	1.1282547e-07
0.0514099      	1.1249236e-07
0.0514412      	1.1216149e-07
0.0514725      	1.1183126e-07
0.0515037      	1.1150331e-07
0.0515349      	1.1117606e-07
0.0515661      	1.1085114e-07
0.0515973      	1.1052696e-07
0.0516285      	1.1020514e-07
0.0516596      	1.0988410e-07
0.0516908      	1.0956546e-07
0.0517219      	1.0924764e-07
0.051753       	1.0893226e-07
0.0517842      	1.0861773e-07
0.0518153      	1.0830568e-07
0.0518463      	1.0799453e-07
0.0518774      	1.0768588e-07
0.0519085      	1.0737815e-07
0.0519395      	1.0707297e-07
0.0519705      	1.0676874e-07
0.0520015      	1.0646707e-07
0.0520325      	1.0616637e-07
0.0520635      	1.0586826e-07
0.0520945      	1.0557116e-07
0.0521255      	1.0527666e-07
0.0521564      	1.0498320e-07
0.0521873      	1.0469237e-07
0.0522183      	1.0440260e-07
0.0522492      	1.0411547e-07
0.0522801      	1.0382942e-07
0.0523109      	1.0354604e-07
0.0523418      	1.0326374e-07
0.0523727      	1.0298413e-07
0.0524035      	1.0270563e-07
0.0524343      	1.0242981e-07
0.0524651      	1.0215510e-07
0.0524959      	1.0188310e-07
0.0525267      	1.0161222e-07
0.0525575      	1.0134405e-07
0.0525883      	1.0107702e-07
0.052619       	1.0081270e-07
0.0526497      	1.0054954e-07
0.0526805      	1.0028910e-07
0.0527112      	1.0002983e-07
0.0527419      	9.9773303e-08
0.0527725      	9.9517936e-08
0.0528032      	9.9265307e-08
0.0528339      	9.9013848e-08
0.0528645      	9.8765126e-08
0.0528951      	9.8517560e-08
0.0529257      	9.8272716e-08
0.0529563      	9.8029041e-08
0.0529869      	9.7788104e-08
0.0530175      	9.7548341e-08
0.0530481      	9.7311313e-08
0.0530786      	9.7075454e-08
0.0531092      	9.6842322e-08
0.0531397      	9.6610356e-08
0.0531702      	9.6381111e-08
0.0532007      	9.6153023e-08
0.0532312      	9.5927637e-08
0.0532617      	9.5703396e-08
0.0532921      	9.5481849e-08
0.0533226      	9.5261449e-08
0.053353       	9.5043755e-08
0.0533834      	9.4827205e-08
0.0534138      	9.4613341e-08
0.0534442      	9.4400600e-08
0.0534746      	9.4190526e-08
0.053505       	9.3981563e-08
0.0535354      	9.3775254e-08
0.0535657      	9.3570046e-08
0.053596       	9.3367474e-08
0.0536264      	9.3165984e-08
0.0536567      	9.2967118e-08
0.053687       	9.2769326e-08
0.0537172      	9.2574141e-08
0.0537475      	9.2380017e-08
0.0537778      	9.2188488e-08
0.053808       	9.1998001e-08
0.0538383      	9.1810086e-08
0.0538685      	9.1623199e-08
0.0538987      	9.1438867e-08
0.0539289      	9.1255547e-08
0.0539591      	9.1074765e-08
0.0539892      	9.0894974e-08
0.0540194      	9.0716973e-08
0.0540495      	9.0539544e-08
0.0540797      	9.0364611e-08
0.0541098      	9.0190638e-08
0.0541399      	9.0019141e-08
0.05417        	8.9848577e-08
0.0542001      	8.9680468e-08
0.0542302      	8.9513275e-08
0.0542602      	8.9348504e-08
0.0542903      	8.9184619e-08
0.0543203      	8.9023136e-08
0.0543503      	8.8862521e-08
0.0543803      	8.8704288e-08
0.0544103      	8.8546899e-08
0.0544403      	8.8391853e-08
0.0544703      	8.8237622e-08
0.0545002      	8.8085714e-08
0.0545302      	8.7934601e-08
0.0545601      	8.7785789e-08
0.0545901      	8.7637745e-08
0.05462        	8.7491974e-08
0.0546499      	8.7346957e-08
0.0546798      	8.7204192e-08
0.0547096      	8.7062152e-08
0.0547395      	8.6922331e-08
0.0547694      	8.6783207e-08
0.0547992      	8.6646273e-08
0.054829       	8.6510011e-08
0.0548589      	8.6375921e-08
0.0548887      	8.6242480e-08
0.0549184      	8.6111176e-08
0.0549482      	8.5980491e-08
0.054978       	8.5851919e-08
0.0550078      	8.5724237e-08
0.0550375      	8.5599465e-08
0.0550672      	8.5475260e-08
0.055097       	8.5353108e-08
0.0551267      	8.5231504e-08
0.0551564      	8.5111922e-08
0.0551861      	8.4992852e-08
0.0552157      	8.4875777e-08
0.0552454      	8.4759181e-08
0.055275       	8.4644556e-08
0.0553047      	8.4530389e-08
0.0553343      	8.4418154e-08
0.0553639      	8.4306347e-08
0.0553935      	8.4196440e-08
0.0554231      	8.4086930e-08
0.0554527      	8.3979295e-08
0.0554823      	8.3872037e-08
0.0555118      	8.3766626e-08
0.0555414      	8.3661565e-08
0.0555709      	8.3558317e-08
0.0556004      	8.3455392e-08
0.0556299      	8.3354255e-08
0.0556594      	8.3253410e-08
0.0556889      	8.3154324e-08
0.0557184      	8.3055505e-08
0.0557479      	8.2958409e-08
0.0557773      	8.2861538e-08
0.0558068      	8.2766362e-08
0.0558362      	8.2671398e-08
0.0558656      	8.2578108e-08
0.055895       	8.2485016e-08
0.0559244      	8.2393570e-08
0.0559538      	8.2302285e-08
0.0559832      	8.2212618e-08
0.0560125      	8.2123085e-08
0.0560419      	8.2035141e-08
0.0560712      	8.1947294e-08
0.0561005      	8.1861005e-08
0.0561298      	8.1774783e-08
0.0561591      	8.1690089e-08
0.0561884      	8.1605448e-08
0.0562177      	8.1522307e-08
0.056247       	8.1439186e-08
0.0562762      	8.1357532e-08
0.0563055      	8.1275873e-08
0.0563347      	8.1195657e-08
0.0563639      	8.1115416e-08
0.0563932      	8.1036596e-08
0.0564224      	8.0957717e-08
0.0564515      	8.0880226e-08
0.0564807      	8.0802662e-08
0.0565099      	8.0726459e-08
0.056539       	8.0650153e-08
0.0565682      	8.0575177e-08
0.0565973      	8.0500066e-08
0.0566264      	8.0426259e-08
0.0566556      	8.0352297e-08
0.0566847      	8.0279617e-08
0.0567137      	8.0206757e-08
0.0567428      	8.0135151e-08
0.0567719      	8.0063334e-08
0.0568009      	7.9992748e-08
0.05683        	7.9921944e-08
0.056859       	7.9852337e-08
0.056888       	7.9782474e-08
0.056917       	7.9713793e-08
0.056946       	7.9644844e-08
0.056975       	7.9577052e-08
0.057004       	7.9508958e-08
0.057033       	7.9441997e-08
0.0570619      	7.9374711e-08
0.0570909      	7.9308523e-08
0.0571198      	7.9241991e-08
0.0571487      	7.9176540e-08
0.0571776      	7.9110726e-08
0.0572065      	7.9045969e-08
0.0572354      	7.8980822e-08
0.0572643      	7.8916707e-08
0.0572932      	7.8852185e-08
0.057322       	7.8788671e-08
0.0573509      	7.8724730e-08
0.0573797      	7.8661778e-08
0.0574085      	7.8598379e-08
0.0574374      	7.8535940e-08
0.0574662      	7.8473026e-08
0.057495       	7.8411048e-08
0.0575237      	7.8348576e-08
0.0575525      	7.8287027e-08
0.0575813      	7.8224970e-08
0.05761        	7.8163804e-08
0.0576388      	7.8102111e-08
0.0576675      	7.8041296e-08
0.0576962      	7.7979933e-08
0.0577249      	7.7919429e-08
0.0577536      	7.7858360e-08
0.0577823      	7.7798131e-08
0.057811       	7.7737318e-08
0.0578396      	7.7677325e-08
0.0578683      	7.7616734e-08
0.0578969      	7.7556945e-08
0.0579255      	7.7496536e-08
0.0579542      	7.7436911e-08
0.0579828      	7.7376652e-08
0.0580114      	7.7316732e-08
0.05804        	7.7255515e-08
0.0580685      	7.7195050e-08
0.0580971      	7.7133925e-08
0.0581257      	7.7073529e-08
0.0581542      	7.7012456e-08
0.0581827      	7.6952103e-08
0.0582113      	7.6891052e-08
0.0582398      	7.6830697e-08
0.0582683      	7.6769626e-08
0.0582968      	7.6709237e-08
0.0583253      	7.6648118e-08
0.0583537      	7.6587663e-08
0.0583822      	7.6526463e-08
0.0584107      	7.6465909e-08
0.0584391      	7.6404597e-08
0.0584675      	7.6343921e-08
0.0584959      	7.6282463e-08
0.0585244      	7.6221622e-08
0.0585528      	7.6159996e-08
0.0585811      	7.6098973e-08
0.0586095      	7.6037152e-08
0.0586379      	7.5975915e-08
0.0586663      	7.5913869e-08
0.0586946      	7.5852402e-08
0.0587229      	7.5790118e-08
0.0587513      	7.5728390e-08
0.0587796      	7.5665823e-08
0.0588079      	7.5603804e-08
0.0588362      	7.5540941e-08
0.0588645      	7.5478612e-08
0.0588928      	7.5415435e-08
0.058921       	7.5352790e-08
0.0589493      	7.5289286e-08
0.0589775      	7.5226293e-08
0.0590058      	7.5162643e-08
0.059034       	7.5100334e-08
0.0590622      	7.5037141e-08
0.0590904      	7.4974432e-08
0.0591186      	7.4910831e-08
0.0591468      	7.4847703e-08
0.059175       	7.4783659e-08
0.0592031      	7.4720073e-08
0.0592313      	7.4655571e-08
0.0592594      	7.4591525e-08
0.0592876      	7.4526559e-08
0.0593157      	7.4462035e-08
0.0593438      	7.4396581e-08
0.0593719      	7.4331560e-08
0.0594         	7.4265601e-08
0.0594281      	7.4200065e-08
0.0594562      	7.4133585e-08
0.0594842      	7.4067521e-08
0.0595123      	7.4000501e-08
0.0595403      	7.3933882e-08
0.0595684      	7.3866303e-08
0.0595964      	7.3799131e-08
0.0596244      	7.3731001e-08
0.0596524      	7.3663261e-08
0.0596804      	7.3594546e-08
0.0597084      	7.3526213e-08
0.0597364      	7.3456905e-08
0.0597643      	7.3387970e-08
0.0597923      	7.3318055e-08
0.0598202      	7.3248510e-08
0.0598482      	7.3177976e-08
0.0598761      	7.3107802e-08
0.059904       	7.3036634e-08
0.0599319      	7.2965828e-08
0.0599598      	7.2894025e-08
0.0599877      	7.2822574e-08
0.0600156      	7.2750121e-08
0.0600434      	7.2678013e-08
0.0600713      	7.2604898e-08
0.0600991      	7.2532122e-08
0.060127       	7.2458334e-08
0.0601548      	7.2384880e-08
0.0601826      	7.2310410e-08
0.0602104      	7.2236264e-08
0.0602382      	7.2161097e-08
0.060266       	7.2086257e-08
0.0602938      	7.2010399e-08
0.0603216      	7.1934855e-08
0.0603493      	7.1858285e-08
0.0603771      	7.1782023e-08
0.0604048      	7.1704729e-08
0.0604325      	7.1627744e-08
0.0604603      	7.1549729e-08
0.060488       	7.1472017e-08
0.0605157      	7.1393270e-08
0.0605434      	7.1314828e-08
0.0605711      	7.1235354e-08
0.0605987      	7.1156181e-08
0.0606264      	7.1075967e-08
0.060654       	7.0996041e-08
0.0606817      	7.0915076e-08
0.0607093      	7.0834399e-08
0.0607369      	7.0752684e-08
0.0607646      	7.0671261e-08
0.0607922      	7.0588799e-08
0.0608198      	7.0506624e-08
0.0608473      	7.0423410e-08
0.0608749      	7.0340482e-08
0.0609025      	7.0256516e-08
0.06093        	7.0172837e-08
0.0609576      	7.0088117e-08
0.0609851      	7.0003677e-08
0.0610127      	6.9918193e-08