# Region type : patch Lc1
# Faces        : 121
# Area         : 2.4367446e-06
# Scale factor : 1.0000000e+00
# Time         	sum(phi)
6e-05          	7.6311134e-11
0.000132       	1.6854850e-10
0.0002184      	2.7961555e-10
0.00032208     	4.1438987e-10
0.000446496    	5.7776532e-10
0.000595795    	7.7760850e-10
0.000774954    	1.0221496e-09
0.000989945    	1.3244712e-09
0.00124793     	1.6991357e-09
0.00155752     	2.1688585e-09
0.00192903     	2.7602342e-09
0.00237483     	3.5139678e-09
0.0029098      	4.4795445e-09
0.00355176     	5.7302509e-09
0.00429766     	7.3031416e-09
0.00475367     	8.3478373e-09
0.00497034     	8.8601735e-09
0.00518395     	9.3785497e-09
0.00542139     	9.9636909e-09
0.00568505     	1.0630065e-08
0.00595404     	1.1321671e-08
0.0062143      	1.2008013e-08
0.0064687      	1.2688837e-08
0.00672407     	1.3387387e-08
0.00698341     	1.4106078e-08
0.00724555     	1.4847115e-08
0.00750815     	1.5598321e-08
0.00777023     	1.6362396e-08
0.0080321      	1.7134044e-08
0.0082944      	1.7920649e-08
0.00855734     	1.8716775e-08
0.00882082     	1.9527817e-08
0.00908464     	2.0347171e-08
0.00934862     	2.1180320e-08
0.00961275     	2.2020681e-08
0.00987705     	2.2874108e-08
0.0101415      	2.3734192e-08
0.0104062      	2.4606675e-08
0.0106709      	2.5485700e-08
0.0109358      	2.6377076e-08
0.0112007      	2.7274770e-08
0.0114658      	2.8184653e-08
0.0117309      	2.9100712e-08
0.0119961      	3.0028847e-08
0.0122614      	3.0963826e-08
0.0125268      	3.1910863e-08
0.0127923      	3.2863972e-08
0.0130547      	3.3817846e-08
0.0133104      	3.4751938e-08
0.0135598      	3.5673777e-08
0.0138031      	3.6578511e-08
0.0140406      	3.7471174e-08
0.0142724      	3.8347787e-08
0.0144989      	3.9213709e-08
0.0147204      	4.0064539e-08
0.0149373      	4.0905952e-08
0.0151497      	4.1733104e-08
0.0153579      	4.2551663e-08
0.0155621      	4.3357664e-08
0.0157624      	4.4156178e-08
0.0159592      	4.4943117e-08
0.0161525      	4.5723305e-08
0.0163424      	4.6492758e-08
0.0165292      	4.7256090e-08
0.016713       	4.8009422e-08
0.0168938      	4.8757190e-08
0.0170719      	4.9495900e-08
0.0172473      	5.0229954e-08
0.0174201      	5.0955213e-08
0.0175903      	5.1675794e-08
0.0177582      	5.2388090e-08
0.0179238      	5.3096085e-08
0.0180872      	5.3795875e-08
0.0182484      	5.4491362e-08
0.0184075      	5.5179427e-08
0.0185646      	5.5863805e-08
0.0187197      	5.6541122e-08
0.0188729      	5.7215009e-08
0.0190244      	5.7882281e-08
0.019174       	5.8546931e-08
0.0193219      	5.9205144e-08
0.0194682      	5.9860353e-08
0.0196128      	6.0509403e-08
0.0197558      	6.1155642e-08
0.0198973      	6.1795978e-08
0.0200373      	6.2433500e-08
0.0201759      	6.3064860e-08
0.020313       	6.3693742e-08
0.0204487      	6.4317169e-08
0.0205831      	6.4938255e-08
0.0207162      	6.5554082e-08
0.020848       	6.6167699e-08
0.0209786      	6.6776243e-08
0.0211079      	6.7382699e-08
0.0212361      	6.7984249e-08
0.0213631      	6.8583816e-08
0.021489       	6.9178631e-08
0.0216137      	6.9771565e-08
0.0217374      	7.0359897e-08
0.02186        	7.0946445e-08
0.0219815      	7.1528534e-08
0.0221021      	7.2109472e-08
0.0222216      	7.2686175e-08
0.0223402      	7.3261254e-08
0.0224579      	7.3832123e-08
0.0225745      	7.4401445e-08
0.0226903      	7.4966676e-08
0.0228052      	7.5530436e-08
0.0229192      	7.6090219e-08
0.0230323      	7.6648421e-08
0.0231446      	7.7202304e-08
0.0232561      	7.7754849e-08
0.0233667      	7.8303622e-08
0.0234765      	7.8851111e-08
0.0235856      	7.9394918e-08
0.0236939      	7.9937496e-08
0.0238014      	8.0476480e-08
0.0239082      	8.1014290e-08
0.0240142      	8.1548594e-08
0.0241196      	8.2081770e-08
0.0242242      	8.2611518e-08
0.0243281      	8.3140182e-08
0.0244314      	8.3665491e-08
0.024534       	8.4189758e-08
0.0246359      	8.4710743e-08
0.0247372      	8.5230728e-08
0.0248378      	8.5747502e-08
0.0249378      	8.6263317e-08
0.0250372      	8.6776215e-08
0.025136       	8.7288564e-08
0.0252341      	8.7797829e-08
0.0253317      	8.8306202e-08
0.0254287      	8.8811552e-08
0.0255252      	8.9316044e-08
0.025621       	8.9817574e-08
0.0257163      	9.0318280e-08
0.0258111      	9.0816082e-08
0.0259053      	9.1313094e-08
0.025999       	9.1807260e-08
0.0260921      	9.2300084e-08
0.0261848      	9.2790109e-08
0.0262769      	9.3279404e-08
0.0263686      	9.3765951e-08
0.0264597      	9.4251791e-08
0.0265503      	9.4734931e-08
0.0266405      	9.5217387e-08
0.0267302      	9.5697190e-08
0.0268194      	9.6176334e-08
0.0269082      	9.6652873e-08
0.0269965      	9.7128779e-08
0.0270843      	9.7602672e-08
0.0271717      	9.8075973e-08
0.0272587      	9.8546745e-08
0.0273452      	9.9016923e-08
0.0274313      	9.9484612e-08
0.027517       	9.9951728e-08
0.0276022      	1.0041640e-07
0.0276871      	1.0088051e-07
0.0277715      	1.0134221e-07
0.0278555      	1.0180339e-07
0.0279391      	1.0226219e-07
0.0280224      	1.0272033e-07
0.0281052      	1.0317572e-07
0.0281877      	1.0363062e-07
0.0282698      	1.0408322e-07
0.0283515      	1.0453534e-07
0.0284328      	1.0498519e-07
0.0285138      	1.0543458e-07
0.0285944      	1.0588173e-07
0.0286746      	1.0632842e-07
0.0287545      	1.0677291e-07
0.0288341      	1.0721697e-07
0.0289133      	1.0765885e-07
0.0289921      	1.0810031e-07
0.0290707      	1.0853963e-07
0.0291488      	1.0897853e-07
0.0292267      	1.0941533e-07
0.0293042      	1.0985172e-07
0.0293814      	1.1028603e-07
0.0294583      	1.1071995e-07
0.0295348      	1.1115181e-07
0.0296111      	1.1158330e-07
0.029687       	1.1201275e-07
0.0297626      	1.1244184e-07
0.029838       	1.1286892e-07
0.029913       	1.1329565e-07
0.0299877      	1.1372040e-07
0.0300621      	1.1414527e-07
0.0301362      	1.1456826e-07
0.0302101      	1.1499093e-07
0.0302836      	1.1541165e-07
0.0303569      	1.1583206e-07
0.0304299      	1.1625055e-07
0.0305026      	1.1666873e-07
0.030575       	1.1708502e-07
0.0306472      	1.1750101e-07
0.0307191      	1.1791513e-07
0.0307907      	1.1832896e-07
0.030862       	1.1874095e-07
0.0309331      	1.1915266e-07
0.0310039      	1.1956252e-07
0.0310745      	1.1997160e-07
0.0311448      	1.2037889e-07
0.0312149      	1.2078591e-07
0.0312847      	1.2119116e-07
0.0313542      	1.2159614e-07
0.0314236      	1.2199937e-07
0.0314926      	1.2240234e-07
0.0315614      	1.2280357e-07
0.03163        	1.2320456e-07
0.0316984      	1.2360381e-07
0.0317665      	1.2400284e-07
0.0318343      	1.2440016e-07
0.031902       	1.2479725e-07
0.0319694      	1.2519265e-07
0.0320366      	1.2558783e-07
0.0321035      	1.2598135e-07
0.0321703      	1.2637465e-07
0.0322368      	1.2676629e-07
0.0323031      	1.2715773e-07
0.0323692      	1.2754752e-07
0.032435       	1.2793712e-07
0.0325006      	1.2832508e-07
0.0325661      	1.2871286e-07
0.0326313      	1.2909902e-07
0.0326963      	1.2948499e-07
0.0327611      	1.2986938e-07
0.0328257      	1.3025358e-07
0.0328901      	1.3063620e-07
0.0329543      	1.3101865e-07
0.0330182      	1.3139968e-07
0.033082       	1.3178091e-07
0.0331456      	1.3216059e-07
0.033209       	1.3254011e-07
0.0332722      	1.3291809e-07
0.0333352      	1.3329590e-07
0.033398       	1.3367220e-07
0.0334606      	1.3404834e-07
0.033523       	1.3442298e-07
0.0335853      	1.3479746e-07
0.0336473      	1.3517045e-07
0.0337092      	1.3554329e-07
0.0337709      	1.3591466e-07
0.0338324      	1.3628589e-07
0.0338937      	1.3665566e-07
0.0339548      	1.3702529e-07
0.0340158      	1.3739334e-07
0.0340766      	1.3776089e-07
0.0341372      	1.3812700e-07
0.0341976      	1.3849299e-07
0.0342579      	1.3885755e-07
0.0343179      	1.3922199e-07
0.0343779      	1.3958502e-07
0.0344376      	1.3994793e-07
0.0344972      	1.4030943e-07
0.0345566      	1.4067082e-07
0.0346158      	1.4103082e-07
0.0346749      	1.4139071e-07
0.0347338      	1.4174921e-07
0.0347926      	1.4210761e-07
0.0348512      	1.4246464e-07
0.0349096      	1.4282157e-07
0.0349679      	1.4317715e-07
0.035026       	1.4353284e-07
0.035084       	1.4388746e-07
0.0351418      	1.4424199e-07
0.0351994      	1.4459518e-07
0.0352569      	1.4494827e-07
0.0353143      	1.4530004e-07
0.0353715      	1.4565172e-07
0.0354285      	1.4600208e-07
0.0354854      	1.4635236e-07
0.0355422      	1.4670133e-07
0.0355987      	1.4705021e-07
0.0356552      	1.4739781e-07
0.0357115      	1.4774532e-07
0.0357677      	1.4809155e-07
0.0358237      	1.4843770e-07
0.0358795      	1.4878258e-07
0.0359353      	1.4912739e-07
0.0359908      	1.4947094e-07
0.0360463      	1.4981401e-07
0.0361016      	1.5015575e-07
0.0361568      	1.5049743e-07
0.0362118      	1.5083786e-07
0.0362667      	1.5117823e-07
0.0363215      	1.5151736e-07
0.0363761      	1.5185644e-07
0.0364306      	1.5219428e-07
0.0364849      	1.5253206e-07
0.0365391      	1.5286863e-07
0.0365932      	1.5320514e-07
0.0366472      	1.5354043e-07
0.036701       	1.5387568e-07
0.0367547      	1.5420972e-07
0.0368083      	1.5454371e-07
0.0368618      	1.5487650e-07
0.0369151      	1.5520925e-07
0.0369683      	1.5554081e-07
0.0370213      	1.5587233e-07
0.0370743      	1.5620268e-07
0.0371271      	1.5653298e-07
0.0371798      	1.5686210e-07
0.0372324      	1.5719119e-07
0.0372848      	1.5751912e-07
0.0373371      	1.5784700e-07
0.0373893      	1.5817373e-07
0.0374414      	1.5850043e-07
0.0374934      	1.5882597e-07
0.0375453      	1.5915148e-07
0.037597       	1.5947585e-07
0.0376486      	1.5980019e-07
0.0377001      	1.6012340e-07
0.0377515      	1.6044657e-07
0.0378028      	1.6076862e-07
0.0378539      	1.6109065e-07
0.037905       	1.6141155e-07
0.0379559      	1.6173243e-07
0.0380067      	1.6205227e-07
0.0380574      	1.6237249e-07
0.038108       	1.6269160e-07
0.0381585      	1.6301069e-07
0.0382089      	1.6332868e-07
0.0382592      	1.6364665e-07
0.0383093      	1.6396353e-07
0.0383594      	1.6428039e-07
0.0384093      	1.6459617e-07
0.0384591      	1.6491192e-07
0.0385089      	1.6522661e-07
0.0385585      	1.6554128e-07
0.038608       	1.6585488e-07
0.0386574      	1.6616846e-07
0.0387067      	1.6648099e-07
0.0387559      	1.6679351e-07
0.038805       	1.6710497e-07
0.038854       	1.6741642e-07
0.0389029      	1.6772682e-07
0.0389517      	1.6803722e-07
0.0390004      	1.6834657e-07
0.039049       	1.6865546e-07
0.0390975      	1.6896332e-07
0.0391459      	1.6927118e-07
0.0391941      	1.6957800e-07
0.0392423      	1.6988483e-07
0.0392904      	1.7019063e-07
0.0393384      	1.7049644e-07
0.0393863      	1.7080122e-07
0.0394341      	1.7110601e-07
0.0394819      	1.7140978e-07
0.0395295      	1.7171355e-07
0.039577       	1.7201632e-07
0.0396244      	1.7231909e-07
0.0396717      	1.7262086e-07
0.039719       	1.7292264e-07
0.0397661      	1.7322342e-07
0.0398132      	1.7352421e-07
0.0398601      	1.7382401e-07
0.039907       	1.7412381e-07
0.0399538      	1.7442264e-07
0.0400005      	1.7472151e-07
0.0400471      	1.7502253e-07
0.0400936      	1.7532356e-07
0.04014        	1.7562360e-07
0.0401863      	1.7592366e-07
0.0402326      	1.7622273e-07
0.0402787      	1.7652182e-07
0.0403248      	1.7681994e-07
0.0403707      	1.7711808e-07
0.0404166      	1.7741526e-07
0.0404624      	1.7771247e-07
0.0405081      	1.7800871e-07
0.0405537      	1.7830498e-07
0.0405993      	1.7860030e-07
0.0406447      	1.7889565e-07
0.0406901      	1.7919006e-07
0.0407354      	1.7948450e-07
0.0407806      	1.7977800e-07
0.0408257      	1.8007154e-07
0.0408707      	1.8036414e-07
0.0409157      	1.8065677e-07
0.0409605      	1.8094849e-07
0.0410053      	1.8124023e-07
0.04105        	1.8153106e-07
0.0410946      	1.8182193e-07
0.0411391      	1.8211188e-07
0.0411836      	1.8240187e-07
0.041228       	1.8269095e-07
0.0412723      	1.8298006e-07
0.0413165      	1.8326828e-07
0.0413606      	1.8355653e-07
0.0414047      	1.8384389e-07
0.0414486      	1.8413128e-07
0.0414925      	1.8441778e-07
0.0415363      	1.8470431e-07
0.0415801      	1.8498996e-07
0.0416237      	1.8527566e-07
0.0416673      	1.8556047e-07
0.0417108      	1.8584532e-07
0.0417543      	1.8612930e-07
0.0417976      	1.8641332e-07
0.0418409      	1.8669646e-07
0.0418841      	1.8697965e-07
0.0419272      	1.8726197e-07
0.0419703      	1.8754434e-07
0.0420133      	1.8782571e-07
0.0420562      	1.8810682e-07
0.042099       	1.8838708e-07
0.0421418      	1.8866739e-07
0.0421845      	1.8894684e-07
0.0422271      	1.8922634e-07
0.0422696      	1.8950498e-07
0.0423121      	1.8978368e-07
0.0423545      	1.9006153e-07
0.0423968      	1.9033943e-07
0.0424391      	1.9061648e-07
0.0424812      	1.9089358e-07
0.0425233      	1.9116985e-07
0.0425654      	1.9144616e-07
0.0426074      	1.9172164e-07
0.0426493      	1.9199717e-07
0.0426911      	1.9227186e-07
0.0427329      	1.9254661e-07
0.0427746      	1.9282053e-07
0.0428162      	1.9309451e-07
0.0428577      	1.9336765e-07
0.0428992      	1.9364086e-07
0.0429407      	1.9391324e-07
0.042982       	1.9418568e-07
0.0430233      	1.9445755e-07
0.0430645      	1.9472966e-07
0.0431057      	1.9500096e-07
0.0431468      	1.9527231e-07
0.0431878      	1.9554285e-07
0.0432287      	1.9581345e-07
0.0432696      	1.9608324e-07
0.0433105      	1.9635308e-07
0.0433512      	1.9662213e-07
0.0433919      	1.9689123e-07
0.0434325      	1.9715953e-07
0.0434731      	1.9742790e-07
0.0435136      	1.9769546e-07
0.043554       	1.9796309e-07
0.0435944      	1.9822992e-07
0.0436347      	1.9849681e-07
0.043675       	1.9876292e-07
0.0437152      	1.9902908e-07
0.0437553      	1.9929446e-07
0.0437953      	1.9955991e-07
0.0438353      	1.9982457e-07
0.0438753      	2.0008929e-07
0.0439152      	2.0035324e-07
0.043955       	2.0061725e-07
0.0439947      	2.0088049e-07
0.0440344      	2.0114379e-07
0.044074       	2.0140632e-07
0.0441136      	2.0166892e-07
0.0441531      	2.0193075e-07
0.0441926      	2.0219264e-07
0.044232       	2.0245376e-07
0.0442713      	2.0271495e-07
0.0443106      	2.0297539e-07
0.0443498      	2.0323588e-07
0.0443889      	2.0349561e-07
0.044428       	2.0375541e-07
0.0444671      	2.0401446e-07
0.044506       	2.0427357e-07
0.044545       	2.0453193e-07
0.0445838      	2.0479035e-07
0.0446226      	2.0504802e-07
0.0446614      	2.0530576e-07
0.0447001      	2.0556275e-07
0.0447387      	2.0581981e-07
0.0447773      	2.0607613e-07
0.0448158      	2.0633251e-07
0.0448543      	2.0658816e-07
0.0448927      	2.0684387e-07
0.044931       	2.0709884e-07
0.0449693      	2.0735389e-07
0.0450076      	2.0760820e-07
0.0450458      	2.0786258e-07
0.0450839      	2.0811624e-07
0.045122       	2.0836996e-07
0.04516        	2.0862295e-07
0.0451979      	2.0887601e-07
0.0452359      	2.0912835e-07
0.0452737      	2.0938076e-07
0.0453115      	2.0963245e-07
0.0453493      	2.0988421e-07
0.045387       	2.1013525e-07
0.0454246      	2.1038636e-07
0.0454622      	2.1063676e-07
0.0454997      	2.1088722e-07
0.0455372      	2.1113697e-07
0.0455747      	2.1138679e-07
0.045612       	2.1163590e-07
0.0456494      	2.1188508e-07
0.0456867      	2.1213356e-07
0.0457239      	2.1238210e-07
0.0457611      	2.1262994e-07
0.0457982      	2.1287786e-07
0.0458352      	2.1312507e-07
0.0458723      	2.1337235e-07
0.0459092      	2.1361894e-07
0.0459462      	2.1386560e-07
0.045983       	2.1411157e-07
0.0460198      	2.1435738e-07
0.0460566      	2.1460232e-07
0.0460933      	2.1484733e-07
0.04613        	2.1509166e-07
0.0461666      	2.1533606e-07
0.0462032      	2.1557977e-07
0.0462397      	2.1582355e-07
0.0462762      	2.1606665e-07
0.0463126      	2.1630983e-07
0.0463489      	2.1655232e-07
0.0463853      	2.1679488e-07
0.0464215      	2.1703677e-07
0.0464578      	2.1727873e-07
0.046494       	2.1752001e-07
0.0465301      	2.1776137e-07
0.0465662      	2.1800205e-07
0.0466022      	2.1824280e-07
0.0466382      	2.1848288e-07
0.0466741      	2.1872304e-07
0.04671        	2.1896252e-07
0.0467459      	2.1920209e-07
0.0467817      	2.1944098e-07
0.0468174      	2.1967995e-07
0.0468531      	2.1991826e-07
0.0468888      	2.2015664e-07
0.0469244      	2.2039436e-07
0.04696        	2.2063216e-07
0.0469955      	2.2086930e-07
0.047031       	2.2110686e-07
0.0470664      	2.2134382e-07
0.0471018      	2.2158085e-07
0.0471371      	2.2181724e-07
0.0471724      	2.2205369e-07
0.0472076      	2.2228949e-07
0.0472428      	2.2252537e-07
0.047278       	2.2276060e-07
0.0473131      	2.2299590e-07
0.0473482      	2.2323055e-07
0.0473832      	2.2346528e-07
0.0474182      	2.2369937e-07
0.0474531      	2.2393353e-07
0.047488       	2.2416705e-07
0.0475229      	2.2440064e-07
0.0475577      	2.2463360e-07
0.0475924      	2.2486663e-07
0.0476271      	2.2509902e-07
0.0476618      	2.2533149e-07
0.0476964      	2.2556333e-07
0.047731       	2.2579524e-07
0.0477656      	2.2602652e-07
0.0478001      	2.2625788e-07
0.0478345      	2.2648861e-07
0.0478689      	2.2671941e-07
0.0479033      	2.2694959e-07
0.0479377      	2.2717985e-07
0.0479719      	2.2740948e-07
0.0480062      	2.2763919e-07
0.0480404      	2.2786828e-07
0.0480746      	2.2809745e-07
0.0481087      	2.2832599e-07
0.0481428      	2.2855462e-07
0.0481768      	2.2878263e-07
0.0482108      	2.2901072e-07
0.0482448      	2.2923819e-07
0.0482787      	2.2946573e-07
0.0483125      	2.2969267e-07
0.0483464      	2.2991968e-07
0.0483802      	2.3014609e-07
0.0484139      	2.3037258e-07
0.0484476      	2.3059846e-07
0.0484813      	2.3082441e-07
0.0485149      	2.3104976e-07
0.0485485      	2.3127519e-07
0.0485821      	2.3150001e-07
0.0486156      	2.3172491e-07
0.0486491      	2.3194921e-07
0.0486825      	2.3217359e-07
0.0487159      	2.3239737e-07
0.0487493      	2.3262123e-07
0.0487826      	2.3284449e-07
0.0488159      	2.3306784e-07
0.0488491      	2.3329058e-07
0.0488823      	2.3351341e-07
0.0489155      	2.3373564e-07
0.0489486      	2.3395796e-07
0.0489817      	2.3417969e-07
0.0490147      	2.3440149e-07
0.0490477      	2.3462271e-07
0.0490807      	2.3484401e-07
0.0491136      	2.3506472e-07
0.0491465      	2.3528551e-07
0.0491794      	2.3550572e-07
0.0492122      	2.3572602e-07
0.0492449      	2.3594572e-07
0.0492777      	2.3616551e-07
0.0493104      	2.3638472e-07
0.0493431      	2.3660401e-07
0.0493757      	2.3682273e-07
0.0494083      	2.3704152e-07
0.0494408      	2.3725974e-07
0.0494734      	2.3747805e-07
0.0495058      	2.3769578e-07
0.0495383      	2.3791359e-07
0.0495707      	2.3813083e-07
0.0496031      	2.3834816e-07
0.0496354      	2.3856491e-07
0.0496677      	2.3878174e-07
0.0497         	2.3899800e-07
0.0497322      	2.3921435e-07
0.0497644      	2.3943012e-07
0.0497965      	2.3964598e-07
0.0498287      	2.3986128e-07
0.0498607      	2.4007665e-07
0.0498928      	2.4029147e-07
0.0499248      	2.4050638e-07
0.0499568      	2.4072072e-07
0.0499887      	2.4093515e-07
0.0500206      	2.4105867e-07
0.0500525      	2.4113305e-07
0.0500844      	2.4120727e-07
0.0501162      	2.4128177e-07
0.0501481      	2.4135594e-07
0.0501799      	2.4143025e-07
0.0502117      	2.4150412e-07
0.0502435      	2.4157803e-07
0.0502753      	2.4165143e-07
0.0503071      	2.4172481e-07
0.0503388      	2.4179762e-07
0.0503706      	2.4187037e-07
0.0504023      	2.4194252e-07
0.050434       	2.4201457e-07
0.0504657      	2.4208598e-07
0.0504974      	2.4215727e-07
0.0505291      	2.4222791e-07
0.0505607      	2.4229840e-07
0.0505924      	2.4236821e-07
0.050624       	2.4243785e-07
0.0506556      	2.4250680e-07
0.0506872      	2.4257556e-07
0.0507188      	2.4264362e-07
0.0507503      	2.4271147e-07
0.0507819      	2.4277860e-07
0.0508134      	2.4284551e-07
0.050845       	2.4291169e-07
0.0508765      	2.4297764e-07
0.050908       	2.4304285e-07
0.0509395      	2.4310782e-07
0.0509709      	2.4317204e-07
0.0510024      	2.4323605e-07
0.0510338      	2.4329964e-07
0.0510652      	2.4336297e-07
0.0510967      	2.4342553e-07
0.0511281      	2.4348783e-07
0.0511594      	2.4354934e-07
0.0511908      	2.4361059e-07
0.0512222      	2.4367104e-07
0.0512535      	2.4373122e-07
0.0512848      	2.4379060e-07
0.0513162      	2.4384970e-07
0.0513475      	2.4390801e-07
0.0513788      	2.4396602e-07
0.05141        	2.4402324e-07
0.0514413      	2.4408015e-07
0.0514725      	2.4413626e-07
0.0515038      	2.4419208e-07
0.051535       	2.4424708e-07
0.0515662      	2.4430177e-07
0.0515974      	2.4435566e-07
0.0516286      	2.4440923e-07
0.0516597      	2.4446199e-07
0.0516909      	2.4451444e-07
0.051722       	2.4456608e-07
0.0517531      	2.4461740e-07
0.0517842      	2.4466791e-07
0.0518153      	2.4471810e-07
0.0518464      	2.4476747e-07
0.0518775      	2.4481653e-07
0.0519085      	2.4486476e-07
0.0519396      	2.4491267e-07
0.0519706      	2.4495976e-07
0.0520016      	2.4500653e-07
0.0520326      	2.4505248e-07
0.0520636      	2.4509811e-07
0.0520946      	2.4514293e-07
0.0521255      	2.4518742e-07
0.0521565      	2.4523109e-07
0.0521874      	2.4527444e-07
0.0522183      	2.4531697e-07
0.0522492      	2.4535918e-07
0.0522801      	2.4540057e-07
0.052311       	2.4544164e-07
0.0523419      	2.4548188e-07
0.0523727      	2.4552181e-07
0.0524036      	2.4556092e-07
0.0524344      	2.4559971e-07
0.0524652      	2.4563769e-07
0.052496       	2.4567535e-07
0.0525268      	2.4571220e-07
0.0525576      	2.4574874e-07
0.0525883      	2.4578446e-07
0.0526191      	2.4581986e-07
0.0526498      	2.4585446e-07
0.0526805      	2.4588874e-07
0.0527112      	2.4592222e-07
0.0527419      	2.4595539e-07
0.0527726      	2.4598776e-07
0.0528033      	2.4601983e-07
0.0528339      	2.4605109e-07
0.0528646      	2.4608205e-07
0.0528952      	2.4611222e-07
0.0529258      	2.4614209e-07
0.0529564      	2.4617116e-07
0.052987       	2.4619994e-07
0.0530176      	2.4622793e-07
0.0530482      	2.4625563e-07
0.0530787      	2.4628254e-07
0.0531092      	2.4630917e-07
0.0531398      	2.4633501e-07
0.0531703      	2.4636057e-07
0.0532008      	2.4638536e-07
0.0532313      	2.4640985e-07
0.0532617      	2.4643358e-07
0.0532922      	2.4645703e-07
0.0533227      	2.4647971e-07
0.0533531      	2.4650211e-07
0.0533835      	2.4652375e-07
0.0534139      	2.4654512e-07
0.0534443      	2.4656573e-07
0.0534747      	2.4658606e-07
0.0535051      	2.4660564e-07
0.0535354      	2.4662496e-07
0.0535658      	2.4664353e-07
0.0535961      	2.4666184e-07
0.0536264      	2.4667940e-07
0.0536567      	2.4669672e-07
0.053687       	2.4671329e-07
0.0537173      	2.4672961e-07
0.0537476      	2.4674521e-07
0.0537779      	2.4676055e-07
0.0538081      	2.4677517e-07
0.0538383      	2.4678954e-07
0.0538686      	2.4680320e-07
0.0538988      	2.4681661e-07
0.053929       	2.4682931e-07
0.0539591      	2.4684178e-07
0.0539893      	2.4685354e-07
0.0540195      	2.4686484e-07
0.0540496      	2.4687530e-07
0.0540797      	2.4688554e-07
0.0541099      	2.4689508e-07
0.05414        	2.4690440e-07
0.0541701      	2.4691303e-07
0.0542002      	2.4692145e-07
0.0542302      	2.4692918e-07
0.0542603      	2.4693670e-07
0.0542903      	2.4694354e-07
0.0543204      	2.4695018e-07
0.0543504      	2.4695615e-07
0.0543804      	2.4696192e-07
0.0544104      	2.4696702e-07
0.0544404      	2.4697192e-07
0.0544704      	2.4697616e-07
0.0545003      	2.4698022e-07
0.0545303      	2.4698361e-07
0.0545602      	2.4698683e-07
0.0545901      	2.4698939e-07
0.0546201      	2.4699177e-07
0.05465        	2.4699350e-07
0.0546798      	2.4699506e-07
0.0547097      	2.4699598e-07
0.0547396      	2.4699674e-07
0.0547694      	2.4699685e-07
0.0547993      	2.4699681e-07
0.0548291      	2.4699614e-07
0.0548589      	2.4699531e-07
0.0548887      	2.4699386e-07
0.0549185      	2.4699226e-07
0.0549483      	2.4699004e-07
0.0549781      	2.4698768e-07
0.0550078      	2.4698480e-07
0.0550376      	2.4698205e-07
0.0550673      	2.4697869e-07
0.055097       	2.4697520e-07
0.0551267      	2.4697111e-07
0.0551564      	2.4696689e-07
0.0551861      	2.4696208e-07
0.0552158      	2.4695714e-07
0.0552455      	2.4695162e-07
0.0552751      	2.4694597e-07
0.0553048      	2.4693974e-07
0.0553344      	2.4693341e-07
0.055364       	2.4692649e-07
0.0553936      	2.4691947e-07
0.0554232      	2.4691187e-07
0.0554528      	2.4690417e-07
0.0554823      	2.4689590e-07
0.0555119      	2.4688754e-07
0.0555414      	2.4687862e-07
0.055571       	2.4686961e-07
0.0556005      	2.4686004e-07
0.05563        	2.4685039e-07
0.0556595      	2.4684019e-07
0.055689       	2.4682990e-07
0.0557185      	2.4681908e-07
0.0557479      	2.4680818e-07
0.0557774      	2.4679674e-07
0.0558068      	2.4678523e-07
0.0558363      	2.4677319e-07
0.0558657      	2.4676108e-07
0.0558951      	2.4674845e-07
0.0559245      	2.4673576e-07
0.0559539      	2.4672254e-07
0.0559832      	2.4670928e-07
0.0560126      	2.4669549e-07
0.0560419      	2.4668165e-07
0.0560713      	2.4666731e-07
0.0561006      	2.4665292e-07
0.0561299      	2.4663802e-07
0.0561592      	2.4662308e-07
0.0561885      	2.4660764e-07
0.0562178      	2.4659217e-07
0.0562471      	2.4657620e-07
0.0562763      	2.4656019e-07
0.0563056      	2.4654370e-07
0.0563348      	2.4652718e-07
0.056364       	2.4651017e-07
0.0563932      	2.4649315e-07
0.0564224      	2.4647564e-07
0.0564516      	2.4645811e-07
0.0564808      	2.4644010e-07
0.05651        	2.4642208e-07
0.0565391      	2.4640360e-07
0.0565683      	2.4638510e-07
0.0565974      	2.4636613e-07
0.0566265      	2.4634716e-07
0.0566556      	2.4632772e-07
0.0566847      	2.4630829e-07
0.0567138      	2.4628839e-07
0.0567429      	2.4626850e-07
0.056772       	2.4624816e-07
0.056801       	2.4622782e-07
0.0568301      	2.4620704e-07
0.0568591      	2.4618626e-07
0.0568881      	2.4616505e-07
0.0569171      	2.4614384e-07
0.0569461      	2.4612220e-07
0.0569751      	2.4610057e-07
0.0570041      	2.4607850e-07
0.0570331      	2.4605646e-07
0.057062       	2.4603399e-07
0.057091       	2.4601154e-07
0.0571199      	2.4598867e-07
0.0571488      	2.4596582e-07
0.0571777      	2.4594256e-07
0.0572066      	2.4591932e-07
0.0572355      	2.4589567e-07
0.0572644      	2.4587205e-07
0.0572933      	2.4584801e-07
0.0573221      	2.4582402e-07
0.057351       	2.4579961e-07
0.0573798      	2.4577524e-07
0.0574086      	2.4575047e-07
0.0574374      	2.4572574e-07
0.0574662      	2.4570061e-07
0.057495       	2.4567552e-07
0.0575238      	2.4565004e-07
0.0575526      	2.4562460e-07
0.0575813      	2.4559878e-07
0.0576101      	2.4557300e-07
0.0576388      	2.4554684e-07
0.0576676      	2.4552073e-07
0.0576963      	2.4549423e-07
0.057725       	2.4546779e-07
0.0577537      	2.4544097e-07
0.0577824      	2.4541420e-07
0.057811       	2.4538706e-07
0.0578397      	2.4535998e-07
0.0578683      	2.4533253e-07
0.057897       	2.4530513e-07
0.0579256      	2.4527736e-07
0.0579542      	2.4524966e-07
0.0579828      	2.4522158e-07
0.0580114      	2.4519345e-07
0.05804        	2.4516474e-07
0.0580686      	2.4513610e-07
0.0580972      	2.4510710e-07
0.0581257      	2.4507818e-07
0.0581543      	2.4504890e-07
0.0581828      	2.4501970e-07
0.0582113      	2.4499013e-07
0.0582399      	2.4496065e-07
0.0582684      	2.4493081e-07
0.0582969      	2.4490106e-07
0.0583253      	2.4487095e-07
0.0583538      	2.4484092e-07
0.0583823      	2.4481054e-07
0.0584107      	2.4478025e-07
0.0584392      	2.4474960e-07
0.0584676      	2.4471905e-07
0.058496       	2.4468814e-07
0.0585244      	2.4465733e-07
0.0585528      	2.4462618e-07
0.0585812      	2.4459511e-07
0.0586096      	2.4456371e-07
0.058638       	2.4453240e-07
0.0586663      	2.4450074e-07
0.0586947      	2.4446919e-07
0.058723       	2.4443729e-07
0.0587513      	2.4440550e-07
0.0587797      	2.4437336e-07
0.058808       	2.4434133e-07
0.0588363      	2.4430897e-07
0.0588646      	2.4427670e-07
0.0588928      	2.4424411e-07
0.0589211      	2.4421161e-07
0.0589494      	2.4417879e-07
0.0589776      	2.4414607e-07
0.0590058      	2.4411310e-07
0.0590341      	2.4408050e-07
0.0590623      	2.4404757e-07
0.0590905      	2.4401476e-07
0.0591187      	2.4398162e-07
0.0591469      	2.4394858e-07
0.059175       	2.4391523e-07
0.0592032      	2.4388198e-07
0.0592314      	2.4384841e-07
0.0592595      	2.4381496e-07
0.0592876      	2.4378118e-07
0.0593158      	2.4374751e-07
0.0593439      	2.4371353e-07
0.059372       	2.4367967e-07
0.0594001      	2.4364549e-07
0.0594282      	2.4361142e-07
0.0594562      	2.4357703e-07
0.0594843      	2.4354276e-07
0.0595124      	2.4350817e-07
0.0595404      	2.4347370e-07
0.0595684      	2.4343892e-07
0.0595965      	2.4340425e-07
0.0596245      	2.4336928e-07
0.0596525      	2.4333442e-07
0.0596805      	2.4329925e-07
0.0597085      	2.4326420e-07
0.0597364      	2.4322884e-07
0.0597644      	2.4319361e-07
0.0597924      	2.4315806e-07
0.0598203      	2.4312264e-07
0.0598482      	2.4308691e-07
0.0598762      	2.4305131e-07
0.0599041      	2.4301540e-07
0.059932       	2.4297961e-07
0.0599599      	2.4294352e-07
0.0599878      	2.4290755e-07
0.0600156      	2.4287127e-07
0.0600435      	2.4283512e-07
0.0600714      	2.4279867e-07
0.0600992      	2.4276235e-07
0.0601271      	2.4272572e-07
0.0601549      	2.4268922e-07
0.0601827      	2.4265242e-07
0.0602105      	2.4261574e-07
0.0602383      	2.4257877e-07
0.0602661      	2.4254192e-07
0.0602939      	2.4250477e-07
0.0603216      	2.4246774e-07
0.0603494      	2.4243043e-07
0.0603772      	2.4239323e-07
0.0604049      	2.4235574e-07
0.0604326      	2.4231837e-07
0.0604603      	2.4228071e-07
0.0604881      	2.4224317e-07
0.0605158      	2.4220534e-07
0.0605434      	2.4216763e-07
0.0605711      	2.4212963e-07
0.0605988      	2.4209176e-07
0.0606265      	2.4205359e-07
0.0606541      	2.4201555e-07
0.0606818      	2.4197722e-07
0.0607094      	2.4193901e-07
0.060737       	2.4190051e-07
0.0607646      	2.4186213e-07
0.0607922      	2.4182346e-07
0.0608198      	2.4178492e-07
0.0608474      	2.4174609e-07
0.060875       	2.4170739e-07
0.0609026      	2.4166840e-07
0.0609301      	2.4162953e-07
0.0609577      	2.4159037e-07
0.0609852      	2.4155134e-07
0.0610127      	2.4151202e-07