# Region type : patch Lc1_sub2
# Faces        : 94
# Area         : 1.9053909e-06
# Scale factor : 1.0000000e+00
# Time         	sum(phi)
6e-05          	8.3141041e-11
0.000132       	1.8346612e-10
0.0002184      	3.0398569e-10
0.00032208     	4.4980349e-10
0.000446496    	6.2593206e-10
0.000595795    	8.4043143e-10
0.000774954    	1.1014440e-09
0.000989945    	1.4218902e-09
0.00124793     	1.8154862e-09
0.00155752     	2.3035352e-09
0.00192903     	2.9095549e-09
0.00237483     	3.6692722e-09
0.0029098      	4.6233441e-09
0.00355176     	5.8315458e-09
0.00429766     	7.3136268e-09
0.00475367     	8.2820447e-09
0.00497034     	8.7519409e-09
0.00518395     	9.2247309e-09
0.00542139     	9.7543763e-09
0.00568505     	1.0353961e-08
0.00595404     	1.0971547e-08
0.0062143      	1.1581328e-08
0.0064687      	1.2182190e-08
0.00672407     	1.2795961e-08
0.00698341     	1.3423515e-08
0.00724555     	1.4067908e-08
0.00750815     	1.4717401e-08
0.00777023     	1.5375767e-08
0.0080321      	1.6037216e-08
0.0082944      	1.6709546e-08
0.00855734     	1.7386829e-08
0.00882082     	1.8075167e-08
0.00908464     	1.8767687e-08
0.00934862     	1.9470638e-08
0.00961275     	2.0177037e-08
0.00987705     	2.0893393e-08
0.0101415      	2.1612880e-08
0.0104062      	2.2341915e-08
0.0106709      	2.3074291e-08
0.0109358      	2.3816474e-08
0.0112007      	2.4562024e-08
0.0114658      	2.5317447e-08
0.0117309      	2.6076315e-08
0.0119961      	2.6845154e-08
0.0122614      	2.7618363e-08
0.0125268      	2.8401696e-08
0.0127923      	2.9188715e-08
0.0130547      	2.9976663e-08
0.0133104      	3.0746999e-08
0.0135598      	3.1507694e-08
0.0138031      	3.2253315e-08
0.0140406      	3.2989542e-08
0.0142724      	3.3711849e-08
0.0144989      	3.4425889e-08
0.0147204      	3.5126701e-08
0.0149373      	3.5820309e-08
0.0151497      	3.6501294e-08
0.0153579      	3.7175691e-08
0.0155621      	3.7839057e-08
0.0157624      	3.8496795e-08
0.0159592      	3.9144347e-08
0.0161525      	3.9786871e-08
0.0163424      	4.0419927e-08
0.0165292      	4.1048459e-08
0.016713       	4.1668146e-08
0.0168938      	4.2283747e-08
0.0170719      	4.2891375e-08
0.0172473      	4.3495757e-08
0.0174201      	4.4092311e-08
0.0175903      	4.4685466e-08
0.0177582      	4.5271229e-08
0.0179238      	4.5853887e-08
0.0180872      	4.6429130e-08
0.0182484      	4.7001161e-08
0.0184075      	4.7566534e-08
0.0185646      	4.8129277e-08
0.0187197      	4.8685668e-08
0.0188729      	4.9239628e-08
0.0190244      	4.9787643e-08
0.019174       	5.0334033e-08
0.0193219      	5.0874600e-08
0.0194682      	5.1413058e-08
0.0196128      	5.1945931e-08
0.0197558      	5.2476844e-08
0.0198973      	5.3002396e-08
0.0200373      	5.3525928e-08
0.0201759      	5.4043765e-08
0.020313       	5.4559898e-08
0.0204487      	5.5071059e-08
0.0205831      	5.5580618e-08
0.0207162      	5.6085373e-08
0.020848       	5.6588629e-08
0.0209786      	5.7087242e-08
0.0211079      	5.7584448e-08
0.0212361      	5.8077157e-08
0.0213631      	5.8568541e-08
0.021489       	5.9055565e-08
0.0216137      	5.9541340e-08
0.0217374      	6.0022885e-08
0.02186        	6.0503257e-08
0.0219815      	6.0979526e-08
0.0221021      	6.1455282e-08
0.0222216      	6.1927150e-08
0.0223402      	6.2397963e-08
0.0224579      	6.2864891e-08
0.0225745      	6.3330824e-08
0.0226903      	6.3792979e-08
0.0228052      	6.4254197e-08
0.0229192      	6.4711738e-08
0.0230323      	6.5168203e-08
0.0231446      	6.5620597e-08
0.0232561      	6.6072161e-08
0.0233667      	6.6520230e-08
0.0234765      	6.6967509e-08
0.0235856      	6.7411373e-08
0.0236939      	6.7854488e-08
0.0238014      	6.8294269e-08
0.0239082      	6.8733342e-08
0.0240142      	6.9169161e-08
0.0241196      	6.9604310e-08
0.0242242      	7.0036273e-08
0.0243281      	7.0467598e-08
0.0244314      	7.0895803e-08
0.024534       	7.1323403e-08
0.0246359      	7.1747948e-08
0.0247372      	7.2171921e-08
0.0248378      	7.2592905e-08
0.0249378      	7.3013348e-08
0.0250372      	7.3431110e-08
0.025136       	7.3848766e-08
0.0252341      	7.4263546e-08
0.0253317      	7.4677832e-08
0.0254287      	7.5089298e-08
0.0255252      	7.5500297e-08
0.025621       	7.5908530e-08
0.0257163      	7.6316322e-08
0.0258111      	7.6721402e-08
0.0259053      	7.7126067e-08
0.025999       	7.7528073e-08
0.0260921      	7.7929055e-08
0.0261848      	7.8327419e-08
0.0262769      	7.8725417e-08
0.0263686      	7.9120845e-08
0.0264597      	7.9515923e-08
0.0265503      	7.9908473e-08
0.0266405      	8.0300690e-08
0.0267302      	8.0690422e-08
0.0268194      	8.1079841e-08
0.0269082      	8.1466820e-08
0.0269965      	8.1853507e-08
0.0270843      	8.2238392e-08
0.0271717      	8.2623020e-08
0.0272587      	8.3005275e-08
0.0273452      	8.3387264e-08
0.0274313      	8.3766918e-08
0.027517       	8.4146322e-08
0.0276022      	8.4523427e-08
0.0276871      	8.4900296e-08
0.0277715      	8.5274904e-08
0.0278555      	8.5649291e-08
0.0279391      	8.6021453e-08
0.0280224      	8.6393245e-08
0.0281052      	8.6762396e-08
0.0281877      	8.7131358e-08
0.0282698      	8.7498161e-08
0.0283515      	8.7864781e-08
0.0284328      	8.8229270e-08
0.0285138      	8.8593586e-08
0.0285944      	8.8955798e-08
0.0286746      	8.9317849e-08
0.0287545      	8.9677825e-08
0.0288341      	9.0037651e-08
0.0289133      	9.0395432e-08
0.0289921      	9.0753077e-08
0.0290707      	9.1108705e-08
0.0291488      	9.1464203e-08
0.0292267      	9.1817708e-08
0.0293042      	9.2171091e-08
0.0293814      	9.2522505e-08
0.0294583      	9.2873805e-08
0.0295348      	9.3223161e-08
0.0296111      	9.3572411e-08
0.029687       	9.3919741e-08
0.0297626      	9.4266976e-08
0.029838       	9.4612315e-08
0.029913       	9.4957568e-08
0.0299877      	9.5300952e-08
0.0300621      	9.5644748e-08
0.0301362      	9.5986791e-08
0.0302101      	9.6328756e-08
0.0302836      	9.6668892e-08
0.0303569      	9.7008957e-08
0.0304299      	9.7347214e-08
0.0305026      	9.7685407e-08
0.030575       	9.8021814e-08
0.0306472      	9.8358166e-08
0.0307191      	9.8692753e-08
0.0307907      	9.9027292e-08
0.030862       	9.9360088e-08
0.0309331      	9.9692843e-08
0.0310039      	1.0002384e-07
0.0310745      	1.0035427e-07
0.0311448      	1.0068298e-07
0.0312149      	1.0101168e-07
0.0312847      	1.0133869e-07
0.0313542      	1.0166567e-07
0.0314236      	1.0199099e-07
0.0314926      	1.0231629e-07
0.0315614      	1.0263993e-07
0.03163        	1.0296356e-07
0.0316984      	1.0328556e-07
0.0317665      	1.0360755e-07
0.0318343      	1.0392792e-07
0.031902       	1.0424829e-07
0.0319694      	1.0456706e-07
0.0320366      	1.0488583e-07
0.0321035      	1.0520302e-07
0.0321703      	1.0552022e-07
0.0322368      	1.0583584e-07
0.0323031      	1.0615148e-07
0.0323692      	1.0646555e-07
0.032435       	1.0677965e-07
0.0325006      	1.0709220e-07
0.0325661      	1.0740477e-07
0.0326313      	1.0771581e-07
0.0326963      	1.0802687e-07
0.0327611      	1.0833642e-07
0.0328257      	1.0864600e-07
0.0328901      	1.0895408e-07
0.0329543      	1.0926220e-07
0.0330182      	1.0956899e-07
0.033082       	1.0987621e-07
0.0331456      	1.1018196e-07
0.033209       	1.1048774e-07
0.0332722      	1.1079207e-07
0.0333352      	1.1109644e-07
0.033398       	1.1139935e-07
0.0334606      	1.1170231e-07
0.033523       	1.1200384e-07
0.0335853      	1.1230541e-07
0.0336473      	1.1260556e-07
0.0337092      	1.1290577e-07
0.0337709      	1.1320457e-07
0.0338324      	1.1350342e-07
0.0338937      	1.1380088e-07
0.0339548      	1.1409840e-07
0.0340158      	1.1439439e-07
0.0340766      	1.1469005e-07
0.0341372      	1.1498433e-07
0.0341976      	1.1527869e-07
0.0342579      	1.1557168e-07
0.0343179      	1.1586474e-07
0.0343779      	1.1615645e-07
0.0344376      	1.1644823e-07
0.0344972      	1.1673868e-07
0.0345566      	1.1702919e-07
0.0346158      	1.1731838e-07
0.0346749      	1.1760763e-07
0.0347338      	1.1789558e-07
0.0347926      	1.1818359e-07
0.0348512      	1.1847031e-07
0.0349096      	1.1875710e-07
0.0349679      	1.1904260e-07
0.035026       	1.1932842e-07
0.035084       	1.1961325e-07
0.0351418      	1.1989817e-07
0.0351994      	1.2018180e-07
0.0352569      	1.2046552e-07
0.0353143      	1.2074797e-07
0.0353715      	1.2103051e-07
0.0354285      	1.2131178e-07
0.0354854      	1.2159315e-07
0.0355422      	1.2187327e-07
0.0355987      	1.2215347e-07
0.0356552      	1.2243244e-07
0.0357115      	1.2271150e-07
0.0357677      	1.2298933e-07
0.0358237      	1.2326725e-07
0.0358795      	1.2354396e-07
0.0359353      	1.2382077e-07
0.0359908      	1.2409636e-07
0.0360463      	1.2437162e-07
0.0361016      	1.2464559e-07
0.0361568      	1.2491966e-07
0.0362118      	1.2519255e-07
0.0362667      	1.2546553e-07
0.0363215      	1.2573733e-07
0.0363761      	1.2600924e-07
0.0364306      	1.2627997e-07
0.0364849      	1.2655080e-07
0.0365391      	1.2682046e-07
0.0365932      	1.2709023e-07
0.0366472      	1.2735884e-07
0.036701       	1.2762756e-07
0.0367547      	1.2789512e-07
0.0368083      	1.2816280e-07
0.0368618      	1.2842933e-07
0.0369151      	1.2869597e-07
0.0369683      	1.2896148e-07
0.0370213      	1.2922711e-07
0.0370743      	1.2949160e-07
0.0371271      	1.2975622e-07
0.0371798      	1.3001971e-07
0.0372324      	1.3028331e-07
0.0372848      	1.3054580e-07
0.0373371      	1.3080841e-07
0.0373893      	1.3106991e-07
0.0374414      	1.3133153e-07
0.0374934      	1.3159205e-07
0.0375453      	1.3185269e-07
0.037597       	1.3211223e-07
0.0376486      	1.3237189e-07
0.0377001      	1.3263047e-07
0.0377515      	1.3288917e-07
0.0378028      	1.3314679e-07
0.0378539      	1.3340454e-07
0.037905       	1.3366121e-07
0.0379559      	1.3391801e-07
0.0380067      	1.3417382e-07
0.0380574      	1.3443019e-07
0.038108       	1.3468550e-07
0.0381585      	1.3494093e-07
0.0382089      	1.3519532e-07
0.0382592      	1.3544982e-07
0.0383093      	1.3570329e-07
0.0383594      	1.3595687e-07
0.0384093      	1.3620942e-07
0.0384591      	1.3646209e-07
0.0385089      	1.3671374e-07
0.0385585      	1.3696550e-07
0.038608       	1.3721625e-07
0.0386574      	1.3746712e-07
0.0387067      	1.3771698e-07
0.0387559      	1.3796697e-07
0.038805       	1.3821594e-07
0.038854       	1.3846505e-07
0.0389029      	1.3871315e-07
0.0389517      	1.3896138e-07
0.0390004      	1.3920861e-07
0.039049       	1.3945548e-07
0.0390975      	1.3970136e-07
0.0391459      	1.3994737e-07
0.0391941      	1.4019240e-07
0.0392423      	1.4043756e-07
0.0392904      	1.4068174e-07
0.0393384      	1.4092606e-07
0.0393863      	1.4116940e-07
0.0394341      	1.4141288e-07
0.0394819      	1.4165538e-07
0.0395295      	1.4189802e-07
0.039577       	1.4213970e-07
0.0396244      	1.4238151e-07
0.0396717      	1.4262236e-07
0.039719       	1.4286335e-07
0.0397661      	1.4310339e-07
0.0398132      	1.4334356e-07
0.0398601      	1.4358279e-07
0.039907       	1.4382215e-07
0.0399538      	1.4406058e-07
0.0400005      	1.4429918e-07
0.0400471      	1.4454026e-07
0.0400936      	1.4478146e-07
0.04014        	1.4502172e-07
0.0401863      	1.4526211e-07
0.0402326      	1.4550155e-07
0.0402787      	1.4574114e-07
0.0403248      	1.4597980e-07
0.0403707      	1.4621860e-07
0.0404166      	1.4645647e-07
0.0404624      	1.4669448e-07
0.0405081      	1.4693157e-07
0.0405537      	1.4716881e-07
0.0405993      	1.4740514e-07
0.0406447      	1.4764161e-07
0.0406901      	1.4787718e-07
0.0407354      	1.4811289e-07
0.0407806      	1.4834770e-07
0.0408257      	1.4858266e-07
0.0408707      	1.4881673e-07
0.0409157      	1.4905094e-07
0.0409605      	1.4928426e-07
0.0410053      	1.4951774e-07
0.04105        	1.4975033e-07
0.0410946      	1.4998307e-07
0.0411391      	1.5021493e-07
0.0411836      	1.5044694e-07
0.041228       	1.5067808e-07
0.0412723      	1.5090937e-07
0.0413165      	1.5113978e-07
0.0413606      	1.5137035e-07
0.0414047      	1.5160005e-07
0.0414486      	1.5182990e-07
0.0414925      	1.5205889e-07
0.0415363      	1.5228803e-07
0.0415801      	1.5251630e-07
0.0416237      	1.5274474e-07
0.0416673      	1.5297232e-07
0.0417108      	1.5320006e-07
0.0417543      	1.5342694e-07
0.0417976      	1.5365398e-07
0.0418409      	1.5388017e-07
0.0418841      	1.5410652e-07
0.0419272      	1.5433203e-07
0.0419703      	1.5455770e-07
0.0420133      	1.5478238e-07
0.0420562      	1.5500690e-07
0.042099       	1.5523058e-07
0.0421418      	1.5545442e-07
0.0421845      	1.5567743e-07
0.0422271      	1.5590060e-07
0.0422696      	1.5612294e-07
0.0423121      	1.5634545e-07
0.0423545      	1.5656712e-07
0.0423968      	1.5678896e-07
0.0424391      	1.5700998e-07
0.0424812      	1.5723115e-07
0.0425233      	1.5745151e-07
0.0425654      	1.5767203e-07
0.0426074      	1.5789174e-07
0.0426493      	1.5811160e-07
0.0426911      	1.5833066e-07
0.0427329      	1.5854988e-07
0.0427746      	1.5876829e-07
0.0428162      	1.5898686e-07
0.0428577      	1.5920463e-07
0.0428992      	1.5942257e-07
0.0429407      	1.5963970e-07
0.042982       	1.5985700e-07
0.0430233      	1.6007377e-07
0.0430645      	1.6029091e-07
0.0431057      	1.6050725e-07
0.0431468      	1.6072375e-07
0.0431878      	1.6093947e-07
0.0432287      	1.6115534e-07
0.0432696      	1.6137043e-07
0.0433105      	1.6158568e-07
0.0433512      	1.6180015e-07
0.0433919      	1.6201478e-07
0.0434325      	1.6222863e-07
0.0434731      	1.6244265e-07
0.0435136      	1.6265588e-07
0.043554       	1.6286928e-07
0.0435944      	1.6308191e-07
0.0436347      	1.6329470e-07
0.043675       	1.6350672e-07
0.0437152      	1.6371890e-07
0.0437553      	1.6393032e-07
0.0437953      	1.6414190e-07
0.0438353      	1.6435272e-07
0.0438753      	1.6456370e-07
0.0439152      	1.6477392e-07
0.043955       	1.6498431e-07
0.0439947      	1.6519395e-07
0.0440344      	1.6540375e-07
0.044074       	1.6561280e-07
0.0441136      	1.6582201e-07
0.0441531      	1.6603048e-07
0.0441926      	1.6623911e-07
0.044232       	1.6644699e-07
0.0442713      	1.6665504e-07
0.0443106      	1.6686235e-07
0.0443498      	1.6706982e-07
0.0443889      	1.6727655e-07
0.044428       	1.6748344e-07
0.0444671      	1.6768959e-07
0.044506       	1.6789591e-07
0.044545       	1.6810150e-07
0.0445838      	1.6830725e-07
0.0446226      	1.6851227e-07
0.0446614      	1.6871745e-07
0.0447001      	1.6892191e-07
0.0447387      	1.6912652e-07
0.0447773      	1.6933042e-07
0.0448158      	1.6953448e-07
0.0448543      	1.6973782e-07
0.0448927      	1.6994132e-07
0.044931       	1.7014411e-07
0.0449693      	1.7034706e-07
0.0450076      	1.7054930e-07
0.0450458      	1.7075170e-07
0.0450839      	1.7095339e-07
0.045122       	1.7115525e-07
0.04516        	1.7135639e-07
0.0451979      	1.7155770e-07
0.0452359      	1.7175831e-07
0.0452737      	1.7195907e-07
0.0453115      	1.7215914e-07
0.0453493      	1.7235937e-07
0.045387       	1.7255890e-07
0.0454246      	1.7275859e-07
0.0454622      	1.7295759e-07
0.0454997      	1.7315674e-07
0.0455372      	1.7335520e-07
0.0455747      	1.7355383e-07
0.045612       	1.7375176e-07
0.0456494      	1.7394986e-07
0.0456867      	1.7414727e-07
0.0457239      	1.7434483e-07
0.0457611      	1.7454172e-07
0.0457982      	1.7473876e-07
0.0458352      	1.7493513e-07
0.0458723      	1.7513166e-07
0.0459092      	1.7532751e-07
0.0459462      	1.7552352e-07
0.045983       	1.7571885e-07
0.0460198      	1.7591411e-07
0.0460566      	1.7610849e-07
0.0460933      	1.7630303e-07
0.04613        	1.7649691e-07
0.0461666      	1.7669094e-07
0.0462032      	1.7688431e-07
0.0462397      	1.7707785e-07
0.0462762      	1.7727071e-07
0.0463126      	1.7746374e-07
0.0463489      	1.7765611e-07
0.0463853      	1.7784864e-07
0.0464215      	1.7804051e-07
0.0464578      	1.7823253e-07
0.046494       	1.7842390e-07
0.0465301      	1.7861544e-07
0.0465662      	1.7880631e-07
0.0466022      	1.7899735e-07
0.0466382      	1.7918773e-07
0.0466741      	1.7937827e-07
0.04671        	1.7956817e-07
0.0467459      	1.7975822e-07
0.0467817      	1.7994763e-07
0.0468174      	1.8013719e-07
0.0468531      	1.8032611e-07
0.0468888      	1.8051520e-07
0.0469244      	1.8070364e-07
0.04696        	1.8089224e-07
0.0469955      	1.8108021e-07
0.047031       	1.8126871e-07
0.0470664      	1.8145664e-07
0.0471018      	1.8164473e-07
0.0471371      	1.8183218e-07
0.0471724      	1.8201979e-07
0.0472076      	1.8220676e-07
0.0472428      	1.8239390e-07
0.047278       	1.8258040e-07
0.0473131      	1.8276707e-07
0.0473482      	1.8295310e-07
0.0473832      	1.8313929e-07
0.0474182      	1.8332486e-07
0.0474531      	1.8351058e-07
0.047488       	1.8369569e-07
0.0475229      	1.8388095e-07
0.0475577      	1.8406558e-07
0.0475924      	1.8425038e-07
0.0476271      	1.8443456e-07
0.0476618      	1.8461890e-07
0.0476964      	1.8480262e-07
0.047731       	1.8498650e-07
0.0477656      	1.8516977e-07
0.0478001      	1.8535320e-07
0.0478345      	1.8553602e-07
0.0478689      	1.8571899e-07
0.0479033      	1.8590136e-07
0.0479377      	1.8608388e-07
0.0479719      	1.8626580e-07
0.0480062      	1.8644788e-07
0.0480404      	1.8662936e-07
0.0480746      	1.8681100e-07
0.0481087      	1.8699203e-07
0.0481428      	1.8717323e-07
0.0481768      	1.8735382e-07
0.0482108      	1.8753457e-07
0.0482448      	1.8771473e-07
0.0482787      	1.8789504e-07
0.0483125      	1.8807476e-07
0.0483464      	1.8825464e-07
0.0483802      	1.8843392e-07
0.0484139      	1.8861337e-07
0.0484476      	1.8879222e-07
0.0484813      	1.8897124e-07
0.0485149      	1.8914966e-07
0.0485485      	1.8932824e-07
0.0485821      	1.8950623e-07
0.0486156      	1.8968438e-07
0.0486491      	1.8986195e-07
0.0486825      	1.9003967e-07
0.0487159      	1.9021681e-07
0.0487493      	1.9039411e-07
0.0487826      	1.9057083e-07
0.0488159      	1.9074771e-07
0.0488491      	1.9092401e-07
0.0488823      	1.9110046e-07
0.0489155      	1.9127634e-07
0.0489486      	1.9145239e-07
0.0489817      	1.9162785e-07
0.0490147      	1.9180348e-07
0.0490477      	1.9197853e-07
0.0490807      	1.9215374e-07
0.0491136      	1.9232838e-07
0.0491465      	1.9250318e-07
0.0491794      	1.9267741e-07
0.0492122      	1.9285181e-07
0.0492449      	1.9302563e-07
0.0492777      	1.9319961e-07
0.0493104      	1.9337303e-07
0.0493431      	1.9354661e-07
0.0493757      	1.9371962e-07
0.0494083      	1.9389279e-07
0.0494408      	1.9406540e-07
0.0494734      	1.9423817e-07
0.0495058      	1.9441038e-07
0.0495383      	1.9458274e-07
0.0495707      	1.9475455e-07
0.0496031      	1.9492652e-07
0.0496354      	1.9509793e-07
0.0496677      	1.9526950e-07
0.0497         	1.9544051e-07
0.0497322      	1.9561168e-07
0.0497644      	1.9578231e-07
0.0497965      	1.9595308e-07
0.0498287      	1.9612332e-07
0.0498607      	1.9629370e-07
0.0498928      	1.9646355e-07
0.0499248      	1.9663356e-07
0.0499568      	1.9680302e-07
0.0499887      	1.9697265e-07
0.0500206      	1.9704317e-07
0.0500525      	1.9706025e-07
0.0500844      	1.9707737e-07
0.0501162      	1.9709500e-07
0.0501481      	1.9711248e-07
0.0501799      	1.9713031e-07
0.0502117      	1.9714787e-07
0.0502435      	1.9716566e-07
0.0502753      	1.9718310e-07
0.0503071      	1.9720071e-07
0.0503388      	1.9721790e-07
0.0503706      	1.9723521e-07
0.0504023      	1.9725208e-07
0.050434       	1.9726905e-07
0.0504657      	1.9728553e-07
0.0504974      	1.9730209e-07
0.0505291      	1.9731815e-07
0.0505607      	1.9733426e-07
0.0505924      	1.9734985e-07
0.050624       	1.9736548e-07
0.0506556      	1.9738057e-07
0.0506872      	1.9739569e-07
0.0507188      	1.9741027e-07
0.0507503      	1.9742486e-07
0.0507819      	1.9743890e-07
0.0508134      	1.9745294e-07
0.050845       	1.9746642e-07
0.0508765      	1.9747989e-07
0.050908       	1.9749280e-07
0.0509395      	1.9750571e-07
0.0509709      	1.9751805e-07
0.0510024      	1.9753040e-07
0.0510338      	1.9754256e-07
0.0510652      	1.9755469e-07
0.0510967      	1.9756625e-07
0.0511281      	1.9757777e-07
0.0511594      	1.9758872e-07
0.0511908      	1.9759963e-07
0.0512222      	1.9760996e-07
0.0512535      	1.9762025e-07
0.0512848      	1.9762995e-07
0.0513162      	1.9763962e-07
0.0513475      	1.9764870e-07
0.0513788      	1.9765774e-07
0.05141        	1.9766620e-07
0.0514413      	1.9767461e-07
0.0514725      	1.9768243e-07
0.0515038      	1.9769021e-07
0.051535       	1.9769739e-07
0.0515662      	1.9770454e-07
0.0515974      	1.9771109e-07
0.0516286      	1.9771760e-07
0.0516597      	1.9772351e-07
0.0516909      	1.9772939e-07
0.051722       	1.9773467e-07
0.0517531      	1.9773992e-07
0.0517842      	1.9774458e-07
0.0518153      	1.9774919e-07
0.0518464      	1.9775322e-07
0.0518775      	1.9775720e-07
0.0519085      	1.9776060e-07
0.0519396      	1.9776395e-07
0.0519706      	1.9776671e-07
0.0520016      	1.9776944e-07
0.0520326      	1.9777158e-07
0.0520636      	1.9777369e-07
0.0520946      	1.9777521e-07
0.0521255      	1.9777670e-07
0.0521565      	1.9777761e-07
0.0521874      	1.9777848e-07
0.0522183      	1.9777877e-07
0.0522492      	1.9777904e-07
0.0522801      	1.9777872e-07
0.052311       	1.9777837e-07
0.0523419      	1.9777745e-07
0.0523727      	1.9777649e-07
0.0524036      	1.9777496e-07
0.0524344      	1.9777341e-07
0.0524652      	1.9777129e-07
0.052496       	1.9776915e-07
0.0525268      	1.9776644e-07
0.0525576      	1.9776371e-07
0.0525883      	1.9776042e-07
0.0526191      	1.9775710e-07
0.0526498      	1.9775323e-07
0.0526805      	1.9774934e-07
0.0527112      	1.9774489e-07
0.0527419      	1.9774043e-07
0.0527726      	1.9773542e-07
0.0528033      	1.9773040e-07
0.0528339      	1.9772483e-07
0.0528646      	1.9771926e-07
0.0528952      	1.9771314e-07
0.0529258      	1.9770702e-07
0.0529564      	1.9770036e-07
0.052987       	1.9769369e-07
0.0530176      	1.9768649e-07
0.0530482      	1.9767929e-07
0.0530787      	1.9767157e-07
0.0531092      	1.9766384e-07
0.0531398      	1.9765559e-07
0.0531703      	1.9764735e-07
0.0532008      	1.9763859e-07
0.0532313      	1.9762983e-07
0.0532617      	1.9762056e-07
0.0532922      	1.9761130e-07
0.0533227      	1.9760152e-07
0.0533531      	1.9759176e-07
0.0533835      	1.9758149e-07
0.0534139      	1.9757124e-07
0.0534443      	1.9756048e-07
0.0534747      	1.9754973e-07
0.0535051      	1.9753848e-07
0.0535354      	1.9752727e-07
0.0535658      	1.9751555e-07
0.0535961      	1.9750386e-07
0.0536264      	1.9749168e-07
0.0536567      	1.9747953e-07
0.053687       	1.9746689e-07
0.0537173      	1.9745429e-07
0.0537476      	1.9744121e-07
0.0537779      	1.9742817e-07
0.0538081      	1.9741464e-07
0.0538383      	1.9740116e-07
0.0538686      	1.9738721e-07
0.0538988      	1.9737330e-07
0.053929       	1.9735891e-07
0.0539591      	1.9734458e-07
0.0539893      	1.9732979e-07
0.0540195      	1.9731479e-07
0.0540496      	1.9729919e-07
0.0540797      	1.9728365e-07
0.0541099      	1.9726765e-07
0.05414        	1.9725172e-07
0.0541701      	1.9723533e-07
0.0542002      	1.9721901e-07
0.0542302      	1.9720223e-07
0.0542603      	1.9718552e-07
0.0542903      	1.9716837e-07
0.0543204      	1.9715130e-07
0.0543504      	1.9713379e-07
0.0543804      	1.9711635e-07
0.0544104      	1.9709847e-07
0.0544404      	1.9708068e-07
0.0544704      	1.9706245e-07
0.0545003      	1.9704431e-07
0.0545303      	1.9702573e-07
0.0545602      	1.9700725e-07
0.0545901      	1.9698833e-07
0.0546201      	1.9696951e-07
0.05465        	1.9695026e-07
0.0546798      	1.9693111e-07
0.0547097      	1.9691154e-07
0.0547396      	1.9689207e-07
0.0547694      	1.9687218e-07
0.0547993      	1.9685239e-07
0.0548291      	1.9683219e-07
0.0548589      	1.9681210e-07
0.0548887      	1.9679160e-07
0.0549185      	1.9677122e-07
0.0549483      	1.9675043e-07
0.0549781      	1.9672975e-07
0.0550078      	1.9670877e-07
0.0550376      	1.9668821e-07
0.0550673      	1.9666724e-07
0.055097       	1.9664640e-07
0.0551267      	1.9662516e-07
0.0551564      	1.9660405e-07
0.0551861      	1.9658254e-07
0.0552158      	1.9656116e-07
0.0552455      	1.9653940e-07
0.0552751      	1.9651776e-07
0.0553048      	1.9649574e-07
0.0553344      	1.9647385e-07
0.055364       	1.9645159e-07
0.0553936      	1.9642945e-07
0.0554232      	1.9640694e-07
0.0554528      	1.9638456e-07
0.0554823      	1.9636182e-07
0.0555119      	1.9633922e-07
0.0555414      	1.9631625e-07
0.055571       	1.9629342e-07
0.0556005      	1.9627023e-07
0.05563        	1.9624718e-07
0.0556595      	1.9622378e-07
0.055689       	1.9620052e-07
0.0557185      	1.9617690e-07
0.0557479      	1.9615343e-07
0.0557774      	1.9612961e-07
0.0558068      	1.9610595e-07
0.0558363      	1.9608193e-07
0.0558657      	1.9605806e-07
0.0558951      	1.9603386e-07
0.0559245      	1.9600981e-07
0.0559539      	1.9598541e-07
0.0559832      	1.9596118e-07
0.0560126      	1.9593661e-07
0.0560419      	1.9591219e-07
0.0560713      	1.9588745e-07
0.0561006      	1.9586286e-07
0.0561299      	1.9583794e-07
0.0561592      	1.9581319e-07
0.0561885      	1.9578810e-07
0.0562178      	1.9576319e-07
0.0562471      	1.9573794e-07
0.0562763      	1.9571286e-07
0.0563056      	1.9568746e-07
0.0563348      	1.9566223e-07
0.056364       	1.9563668e-07
0.0563932      	1.9561130e-07
0.0564224      	1.9558560e-07
0.0564516      	1.9556007e-07
0.0564808      	1.9553423e-07
0.05651        	1.9550856e-07
0.0565391      	1.9548258e-07
0.0565683      	1.9545678e-07
0.0565974      	1.9543066e-07
0.0566265      	1.9540472e-07
0.0566556      	1.9537847e-07
0.0566847      	1.9535240e-07
0.0567138      	1.9532603e-07
0.0567429      	1.9529983e-07
0.056772       	1.9527333e-07
0.056801       	1.9524702e-07
0.0568301      	1.9522040e-07
0.0568591      	1.9519396e-07
0.0568881      	1.9516723e-07
0.0569171      	1.9514068e-07
0.0569461      	1.9511383e-07
0.0569751      	1.9508717e-07
0.0570041      	1.9506020e-07
0.0570331      	1.9503343e-07
0.057062       	1.9500637e-07
0.057091       	1.9497949e-07
0.0571199      	1.9495232e-07
0.0571488      	1.9492535e-07
0.0571777      	1.9489808e-07
0.0572066      	1.9487100e-07
0.0572355      	1.9484363e-07
0.0572644      	1.9481646e-07
0.0572933      	1.9478900e-07
0.0573221      	1.9476173e-07
0.057351       	1.9473417e-07
0.0573798      	1.9470681e-07
0.0574086      	1.9467916e-07
0.0574374      	1.9465171e-07
0.0574662      	1.9462397e-07
0.057495       	1.9459643e-07
0.0575238      	1.9456860e-07
0.0575526      	1.9454098e-07
0.0575813      	1.9451307e-07
0.0576101      	1.9448537e-07
0.0576388      	1.9445738e-07
0.0576676      	1.9442959e-07
0.0576963      	1.9440152e-07
0.057725       	1.9437365e-07
0.0577537      	1.9434550e-07
0.0577824      	1.9431756e-07
0.057811       	1.9428933e-07
0.0578397      	1.9426131e-07
0.0578683      	1.9423301e-07
0.057897       	1.9420491e-07
0.0579256      	1.9417653e-07
0.0579542      	1.9414835e-07
0.0579828      	1.9411990e-07
0.0580114      	1.9409150e-07
0.05804        	1.9406260e-07
0.0580686      	1.9403392e-07
0.0580972      	1.9400495e-07
0.0581257      	1.9397620e-07
0.0581543      	1.9394717e-07
0.0581828      	1.9391834e-07
0.0582113      	1.9388925e-07
0.0582399      	1.9386036e-07
0.0582684      	1.9383120e-07
0.0582969      	1.9380224e-07
0.0583253      	1.9377301e-07
0.0583538      	1.9374399e-07
0.0583823      	1.9371470e-07
0.0584107      	1.9368561e-07
0.0584392      	1.9365624e-07
0.0584676      	1.9362709e-07
0.058496       	1.9359766e-07
0.0585244      	1.9356843e-07
0.0585528      	1.9353894e-07
0.0585812      	1.9350965e-07
0.0586096      	1.9348010e-07
0.058638       	1.9345075e-07
0.0586663      	1.9342113e-07
0.0586947      	1.9339171e-07
0.058723       	1.9336202e-07
0.0587513      	1.9333254e-07
0.0587797      	1.9330279e-07
0.058808       	1.9327325e-07
0.0588363      	1.9324344e-07
0.0588646      	1.9321383e-07
0.0588928      	1.9318395e-07
0.0589211      	1.9315428e-07
0.0589494      	1.9312434e-07
0.0589776      	1.9309461e-07
0.0590058      	1.9306468e-07
0.0590341      	1.9303526e-07
0.0590623      	1.9300556e-07
0.0590905      	1.9297607e-07
0.0591187      	1.9294631e-07
0.0591469      	1.9291675e-07
0.059175       	1.9288693e-07
0.0592032      	1.9285730e-07
0.0592314      	1.9282741e-07
0.0592595      	1.9279772e-07
0.0592876      	1.9276776e-07
0.0593158      	1.9273800e-07
0.0593439      	1.9270797e-07
0.059372       	1.9267815e-07
0.0594001      	1.9264806e-07
0.0594282      	1.9261816e-07
0.0594562      	1.9258800e-07
0.0594843      	1.9255803e-07
0.0595124      	1.9252779e-07
0.0595404      	1.9249775e-07
0.0595684      	1.9246745e-07
0.0595965      	1.9243734e-07
0.0596245      	1.9240696e-07
0.0596525      	1.9237678e-07
0.0596805      	1.9234633e-07
0.0597085      	1.9231607e-07
0.0597364      	1.9228555e-07
0.0597644      	1.9225522e-07
0.0597924      	1.9222463e-07
0.0598203      	1.9219422e-07
0.0598482      	1.9216355e-07
0.0598762      	1.9213308e-07
0.0599041      	1.9210233e-07
0.059932       	1.9207178e-07
0.0599599      	1.9204096e-07
0.0599878      	1.9201033e-07
0.0600156      	1.9197943e-07
0.0600435      	1.9194872e-07
0.0600714      	1.9191774e-07
0.0600992      	1.9188695e-07
0.0601271      	1.9185590e-07
0.0601549      	1.9182503e-07
0.0601827      	1.9179389e-07
0.0602105      	1.9176295e-07
0.0602383      	1.9173173e-07
0.0602661      	1.9170069e-07
0.0602939      	1.9166939e-07
0.0603216      	1.9163828e-07
0.0603494      	1.9160689e-07
0.0603772      	1.9157569e-07
0.0604049      	1.9154421e-07
0.0604326      	1.9151292e-07
0.0604603      	1.9148135e-07
0.0604881      	1.9144997e-07
0.0605158      	1.9141832e-07
0.0605434      	1.9138685e-07
0.0605711      	1.9135511e-07
0.0605988      	1.9132354e-07
0.0606265      	1.9129171e-07
0.0606541      	1.9126005e-07
0.0606818      	1.9122812e-07
0.0607094      	1.9119637e-07
0.060737       	1.9116435e-07
0.0607646      	1.9113250e-07
0.0607922      	1.9110038e-07
0.0608198      	1.9106843e-07
0.0608474      	1.9103621e-07
0.060875       	1.9100417e-07
0.0609026      	1.9097186e-07
0.0609301      	1.9093972e-07
0.0609577      	1.9090730e-07
0.0609852      	1.9087505e-07
0.0610127      	1.9084253e-07