# Region type : patch outlet
# Faces        : 34923
# Area         : 6.0186191e-04
# Scale factor : 1.0000000e+00
# Time         	areaAverage(p)
6e-05          	0.0000000e+00
0.000132       	8.1620894e-04
0.0002184      	9.8653814e-04
0.00032208     	2.0098953e-03
0.000446496    	2.4334907e-03
0.000595795    	3.7667816e-03
0.000774954    	4.5716785e-03
0.000989945    	6.3754686e-03
0.00124793     	7.7642646e-03
0.00155752     	1.0297001e-02
0.00192903     	1.2600422e-02
0.00237483     	1.6288882e-02
0.0029098      	2.0061458e-02
0.00355176     	2.5636117e-02
0.00429765     	3.1839390e-02
0.00475382     	3.9892677e-02
0.00497048     	4.0907993e-02
0.00518408     	4.4370063e-02
0.00542151     	4.5406084e-02
0.00568516     	4.9450260e-02
0.00595414     	5.1130354e-02
0.0062144      	5.5386515e-02
0.00646879     	5.6982185e-02
0.00672414     	6.1210515e-02
0.00698347     	6.2929087e-02
0.0072456      	6.7349549e-02
0.0075082      	6.9230656e-02
0.00777027     	7.3764619e-02
0.00803213     	7.5736459e-02
0.00829441     	8.0369418e-02
0.00855734     	8.2455798e-02
0.00882083     	8.7209676e-02
0.00908463     	8.9415084e-02
0.00934861     	9.4284559e-02
0.00961272     	9.6604610e-02
0.00987701     	1.0158427e-01
0.0101415      	1.0401568e-01
0.0104061      	1.0910330e-01
0.0106708      	1.1164257e-01
0.0109356      	1.1684044e-01
0.0112005      	1.1949001e-01
0.0114655      	1.2479837e-01
0.0117307      	1.2755882e-01
0.0119958      	1.3297805e-01
0.0122611      	1.3584950e-01
0.0125265      	1.4138803e-01
0.0127919      	1.4437126e-01
0.0130543      	1.5001500e-01
0.0133099      	1.5299715e-01
0.0135591      	1.5851371e-01
0.0138025      	1.6138397e-01
0.01404        	1.6679459e-01
0.0142718      	1.6955306e-01
0.0144983      	1.7486285e-01
0.0147199      	1.7751942e-01
0.0149367      	1.8273219e-01
0.0151492      	1.8529696e-01
0.0153574      	1.9041608e-01
0.0155616      	1.9289514e-01
0.0157619      	1.9793433e-01
0.0159587      	2.0033736e-01
0.016152       	2.0530324e-01
0.0163419      	2.0763644e-01
0.0165288      	2.1253476e-01
0.0167125      	2.1480349e-01
0.0168934      	2.1963923e-01
0.0170714      	2.2184819e-01
0.0172468      	2.2662886e-01
0.0174196      	2.2878684e-01
0.0175899      	2.3351310e-01
0.0177578      	2.3561902e-01
0.0179234      	2.4029432e-01
0.0180867      	2.4235147e-01
0.0182479      	2.4697483e-01
0.0184071      	2.4898262e-01
0.0185642      	2.5356092e-01
0.0187193      	2.5552558e-01
0.0188726      	2.6006130e-01
0.019024       	2.6198521e-01
0.0191736      	2.6648181e-01
0.0193216      	2.6837335e-01
0.0194678      	2.7283163e-01
0.0196124      	2.7468652e-01
0.0197555      	2.7910837e-01
0.019897       	2.8092841e-01
0.020037       	2.8531555e-01
0.0201755      	2.8710049e-01
0.0203126      	2.9144922e-01
0.0204484      	2.9320255e-01
0.0205828      	2.9751966e-01
0.0207159      	2.9924281e-01
0.0208477      	3.0352965e-01
0.0209783      	3.0522391e-01
0.0211076      	3.0948174e-01
0.0212358      	3.1114832e-01
0.0213628      	3.1537829e-01
0.0214886      	3.1701833e-01
0.0216134      	3.2122152e-01
0.021737       	3.2283606e-01
0.0218597      	3.2701349e-01
0.0219812      	3.2860352e-01
0.0221018      	3.3275612e-01
0.0222213      	3.3432836e-01
0.0223399      	3.3845804e-01
0.0224576      	3.4000752e-01
0.0225742      	3.4411405e-01
0.02269        	3.4564157e-01
0.0228049      	3.4972574e-01
0.0229189      	3.5123207e-01
0.023032       	3.5529459e-01
0.0231443      	3.5677854e-01
0.0232558      	3.6081533e-01
0.0233664      	3.6227952e-01
0.0234763      	3.6629605e-01
0.0235853      	3.6774112e-01
0.0236936      	3.7173801e-01
0.0238011      	3.7316458e-01
0.0239079      	3.7714241e-01
0.024014       	3.7855104e-01
0.0241193      	3.8251037e-01
0.0242239      	3.8390160e-01
0.0243279      	3.8784295e-01
0.0244311      	3.8921731e-01
0.0245337      	3.9314119e-01
0.0246356      	3.9449916e-01
0.0247369      	3.9840604e-01
0.0248375      	3.9974809e-01
0.0249375      	4.0363842e-01
0.0250369      	4.0496500e-01
0.0251357      	4.0884159e-01
0.0252339      	4.1015714e-01
0.0253315      	4.1401800e-01
0.0254285      	4.1531888e-01
0.0255249      	4.1916440e-01
0.0256208      	4.2045100e-01
0.0257161      	4.2428155e-01
0.0258108      	4.2555425e-01
0.0259051      	4.2937019e-01
0.0259987      	4.3062934e-01
0.0260919      	4.3443102e-01
0.0261846      	4.3567078e-01
0.0262767      	4.3945846e-01
0.0263683      	4.4068536e-01
0.0264595      	4.4445946e-01
0.0265501      	4.4567381e-01
0.0266403      	4.4943462e-01
0.02673        	4.5063673e-01
0.0268192      	4.5438454e-01
0.0269079      	4.5557470e-01
0.0269962      	4.5930978e-01
0.0270841      	4.6048826e-01
0.0271715      	4.6421677e-01
0.0272584      	4.6538408e-01
0.027345       	4.6910037e-01
0.0274311      	4.7025651e-01
0.0275167      	4.7396083e-01
0.027602       	4.7510604e-01
0.0276868      	4.7879865e-01
0.0277713      	4.7993317e-01
0.0278553      	4.8361427e-01
0.0279389      	4.8473834e-01
0.0280222      	4.8840817e-01
0.028105       	4.8952040e-01
0.0281875      	4.9317478e-01
0.0282696      	4.9427700e-01
0.0283513      	4.9792056e-01
0.0284326      	4.9901298e-01
0.0285136      	5.0264592e-01
0.0285942      	5.0372875e-01
0.0286744      	5.0735125e-01
0.0287543      	5.0842468e-01
0.0288339      	5.1203694e-01
0.0289131      	5.1310115e-01
0.0289919      	5.1670335e-01
0.0290705      	5.1775852e-01
0.0291486      	5.2135083e-01
0.0292265      	5.2239715e-01
0.029304       	5.2597974e-01
0.0293812      	5.2701737e-01
0.0294581      	5.3059041e-01
0.0295346      	5.3161951e-01
0.0296109      	5.3518315e-01
0.0296868      	5.3620389e-01
0.0297624      	5.3975829e-01
0.0298378      	5.4077081e-01
0.0299128      	5.4431613e-01
0.0299875      	5.4532059e-01
0.0300619      	5.4885697e-01
0.0301361      	5.4985830e-01
0.0302099      	5.5338683e-01
0.0302834      	5.5438038e-01
0.0303567      	5.5790023e-01
0.0304297      	5.5888611e-01
0.0305024      	5.6239742e-01
0.0305748      	5.6337578e-01
0.030647       	5.6687866e-01
0.0307189      	5.6784963e-01
0.0307905      	5.7134423e-01
0.0308618      	5.7230793e-01
0.0309329      	5.7579436e-01
0.0310038      	5.7675091e-01
0.0310743      	5.8022899e-01
0.0311446      	5.8117317e-01
0.0312147      	5.8464333e-01
0.0312845      	5.8558061e-01
0.0313541      	5.8904296e-01
0.0314234      	5.8997346e-01
0.0314924      	5.9342813e-01
0.0315613      	5.9435196e-01
0.0316298      	5.9779903e-01
0.0316982      	5.9871629e-01
0.0317663      	6.0215588e-01
0.0318342      	6.0306669e-01
0.0319018      	6.0649890e-01
0.0319692      	6.0740335e-01
0.0320364      	6.1082827e-01
0.0321034      	6.1172646e-01
0.0321701      	6.1514419e-01
0.0322366      	6.1603622e-01
0.0323029      	6.1944686e-01
0.032369       	6.2033282e-01
0.0324348      	6.2373646e-01
0.0325005      	6.2461644e-01
0.0325659      	6.2801317e-01
0.0326311      	6.2888726e-01
0.0326961      	6.3227717e-01
0.0327609      	6.3314547e-01
0.0328255      	6.3652863e-01
0.0328899      	6.3739121e-01
0.0329541      	6.4076772e-01
0.0330181      	6.4162467e-01
0.0330819      	6.4499615e-01
0.0331454      	6.4585145e-01
0.0332088      	6.4921642e-01
0.033272       	6.5006624e-01
0.033335       	6.5342477e-01
0.0333978      	6.5426919e-01
0.0334604      	6.5762137e-01
0.0335229      	6.5846046e-01
0.0335851      	6.6180637e-01
0.0336472      	6.6264021e-01
0.033709       	6.6597990e-01
0.0337707      	6.6680856e-01
0.0338322      	6.7014213e-01
0.0338935      	6.7096567e-01
0.0339547      	6.7429317e-01
0.0340156      	6.7511168e-01
0.0340764      	6.7843181e-01
0.034137       	6.7924139e-01
0.0341974      	6.8255560e-01
0.0342577      	6.8336028e-01
0.0343178      	6.8666863e-01
0.0343777      	6.8746849e-01
0.0344375      	6.9077106e-01
0.034497       	6.9156615e-01
0.0345564      	6.9486299e-01
0.0346157      	6.9565339e-01
0.0346748      	6.9894456e-01
0.0347337      	6.9973032e-01
0.0347925      	7.0301589e-01
0.034851       	7.0379707e-01
0.0349095      	7.0707709e-01
0.0349678      	7.0785375e-01
0.0350259      	7.1112828e-01
0.0350838      	7.1190282e-01
0.0351416      	7.1517481e-01
0.0351993      	7.1594494e-01
0.0352568      	7.1921155e-01
0.0353141      	7.1997731e-01
0.0353713      	7.2323859e-01
0.0354284      	7.2400004e-01
0.0354853      	7.2725604e-01
0.035542       	7.2801325e-01
0.0355986      	7.3126401e-01
0.035655       	7.3201702e-01
0.0357113      	7.3526260e-01
0.0357675      	7.3601147e-01
0.0358235      	7.3925192e-01
0.0358794      	7.3999669e-01
0.0359351      	7.4323207e-01
0.0359907      	7.4397278e-01
0.0360462      	7.4720313e-01
0.0361015      	7.4793556e-01
0.0361566      	7.5116007e-01
0.0362117      	7.5188856e-01
0.0362666      	7.5510814e-01
0.0363213      	7.5583274e-01
0.0363759      	7.5904744e-01
0.0364304      	7.5976819e-01
0.0364848      	7.6297806e-01
0.036539       	7.6369500e-01
0.0365931      	7.6690008e-01
0.0366471      	7.6761327e-01
0.0367009      	7.7081359e-01
0.0367546      	7.7152306e-01
0.0368082      	7.7471868e-01
0.0368616      	7.7542449e-01
0.0369149      	7.7861544e-01
0.0369681      	7.7931761e-01
0.0370212      	7.8250394e-01
0.0370741      	7.8320253e-01
0.037127       	7.8638427e-01
0.0371797      	7.8707931e-01
0.0372322      	7.9025651e-01
0.0372847      	7.9094804e-01
0.037337       	7.9412074e-01
0.0373892      	7.9480880e-01
0.0374413      	7.9797703e-01
0.0374933      	7.9866166e-01
0.0375451      	8.0182546e-01
0.0375969      	8.0250670e-01
0.0376485      	8.0566611e-01
0.0377         	8.0634399e-01
0.0377514      	8.0949905e-01
0.0378026      	8.1017361e-01
0.0378538      	8.1332435e-01
0.0379048      	8.1399562e-01
0.0379558      	8.1714208e-01
0.0380066      	8.1781011e-01
0.0380573      	8.2095296e-01
0.0381079      	8.2162210e-01
0.0381584      	8.2476073e-01
0.0382088      	8.2542669e-01
0.038259       	8.2856113e-01
0.0383092      	8.2922393e-01
0.0383592      	8.3235422e-01
0.0384092      	8.3301390e-01
0.038459       	8.3614006e-01
0.0385087      	8.3679665e-01
0.0385583      	8.3991872e-01
0.0386079      	8.4057226e-01
0.0386573      	8.4369027e-01
0.0387066      	8.4434079e-01
0.0387558      	8.4745477e-01
0.0388049      	8.4810229e-01
0.0388539      	8.5121228e-01
0.0389028      	8.5185684e-01
0.0389516      	8.5496285e-01
0.0390003      	8.5560448e-01
0.0390488      	8.5870654e-01
0.0390973      	8.5934040e-01
0.0391457      	8.6243855e-01
0.039194       	8.6306955e-01
0.0392422      	8.6616383e-01
0.0392903      	8.6679199e-01
0.0393383      	8.6988242e-01
0.0393862      	8.7050778e-01
0.039434       	8.7359440e-01
0.0394817      	8.7421698e-01
0.0395293      	8.7729981e-01
0.0395769      	8.7791964e-01
0.0396243      	8.8099871e-01
0.0396716      	8.8161581e-01
0.0397189      	8.8469115e-01
0.039766       	8.8530556e-01
0.0398131      	8.8837718e-01
0.03986        	8.8898892e-01
0.0399069      	8.9205687e-01
0.0399537      	8.9266596e-01
0.0400004      	8.9573025e-01
0.040047       	8.9633699e-01
0.0400935      	8.9943106e-01
0.0401399      	9.0003516e-01
0.0401862      	9.0312557e-01
0.0402324      	9.0372706e-01
0.0402786      	9.0681383e-01
0.0403246      	9.0741273e-01
0.0403706      	9.1049589e-01
0.0404165      	9.1109223e-01
0.0404623      	9.1417179e-01
0.040508       	9.1476560e-01
0.0405536      	9.1784160e-01
0.0405992      	9.1843289e-01
0.0406446      	9.2150534e-01
0.04069        	9.2209414e-01
0.0407353      	9.2516308e-01
0.0407805      	9.2574941e-01
0.0408256      	9.2881485e-01
0.0408706      	9.2939874e-01
0.0409155      	9.3246070e-01
0.0409604      	9.3304218e-01
0.0410052      	9.3610069e-01
0.0410499      	9.3667976e-01
0.0410945      	9.3973485e-01
0.041139       	9.4031155e-01
0.0411835      	9.4336322e-01
0.0412279      	9.4393757e-01
0.0412721      	9.4698586e-01
0.0413164      	9.4755788e-01
0.0413605      	9.5060281e-01
0.0414045      	9.5117251e-01
0.0414485      	9.5421410e-01
0.0414924      	9.5478152e-01
0.0415362      	9.5781978e-01
0.04158        	9.5838493e-01
0.0416236      	9.6141990e-01
0.0416672      	9.6198280e-01
0.0417107      	9.6501449e-01
0.0417542      	9.6557516e-01
0.0417975      	9.6860359e-01
0.0418408      	9.6916206e-01
0.041884       	9.7218724e-01
0.0419271      	9.7274353e-01
0.0419702      	9.7576549e-01
0.0420132      	9.7631961e-01
0.0420561      	9.7933694e-01
0.0420989      	9.7988569e-01
0.0421417      	9.8289985e-01
0.0421843      	9.8344647e-01
0.042227       	9.8645747e-01
0.0422695      	9.8700199e-01
0.042312       	9.9000985e-01
0.0423544      	9.9055228e-01
0.0423967      	9.9355703e-01
0.0424389      	9.9409739e-01
0.0424811      	9.9709903e-01
0.0425232      	9.9763735e-01
0.0425653      	1.0006359e+00
0.0426073      	1.0011722e+00
0.0426492      	1.0041677e+00
0.042691       	1.0047020e+00
0.0427328      	1.0076944e+00
0.0427745      	1.0082267e+00
0.0428161      	1.0112161e+00
0.0428576      	1.0117464e+00
0.0428991      	1.0147328e+00
0.0429405      	1.0152611e+00
0.0429819      	1.0182445e+00
0.0430232      	1.0187709e+00
0.0430644      	1.0217539e+00
0.0431056      	1.0222804e+00
0.0431467      	1.0252604e+00
0.0431877      	1.0257849e+00
0.0432286      	1.0287620e+00
0.0432695      	1.0292847e+00
0.0433104      	1.0322588e+00
0.0433511      	1.0327796e+00
0.0433918      	1.0357507e+00
0.0434324      	1.0362696e+00
0.043473       	1.0392379e+00
0.0435135      	1.0397550e+00
0.0435539      	1.0427204e+00
0.0435943      	1.0432356e+00
0.0436346      	1.0461981e+00
0.0436749      	1.0467115e+00
0.0437151      	1.0496712e+00
0.0437552      	1.0501827e+00
0.0437952      	1.0531396e+00
0.0438352      	1.0536493e+00
0.0438752      	1.0566033e+00
0.0439151      	1.0571113e+00
0.0439549      	1.0600625e+00
0.0439946      	1.0605687e+00
0.0440343      	1.0635171e+00
0.0440739      	1.0640216e+00
0.0441135      	1.0669672e+00
0.044153       	1.0674699e+00
0.0441925      	1.0704127e+00
0.0442319      	1.0709138e+00
0.0442712      	1.0738538e+00
0.0443105      	1.0743532e+00
0.0443497      	1.0772905e+00
0.0443888      	1.0777881e+00
0.0444279      	1.0807227e+00
0.044467       	1.0812186e+00
0.0445059      	1.0841505e+00
0.0445449      	1.0846448e+00
0.0445837      	1.0875739e+00
0.0446225      	1.0880666e+00
0.0446613      	1.0909930e+00
0.0447         	1.0914840e+00
0.0447386      	1.0944078e+00
0.0447772      	1.0948972e+00
0.0448157      	1.0978183e+00
0.0448542      	1.0983061e+00
0.0448926      	1.1012245e+00
0.0449309      	1.1017107e+00
0.0449692      	1.1046265e+00
0.0450075      	1.1051111e+00
0.0450457      	1.1080243e+00
0.0450838      	1.1085073e+00
0.0451219      	1.1114179e+00
0.0451599      	1.1118993e+00
0.0451979      	1.1148073e+00
0.0452358      	1.1152872e+00
0.0452736      	1.1181926e+00
0.0453114      	1.1186710e+00
0.0453492      	1.1215738e+00
0.0453869      	1.1220506e+00
0.0454245      	1.1249508e+00
0.0454621      	1.1254262e+00
0.0454997      	1.1283238e+00
0.0455371      	1.1287977e+00
0.0455746      	1.1316928e+00
0.045612       	1.1321651e+00
0.0456493      	1.1350578e+00
0.0456866      	1.1355286e+00
0.0457238      	1.1384187e+00
0.045761       	1.1388881e+00
0.0457981      	1.1417757e+00
0.0458351      	1.1422436e+00
0.0458722      	1.1451287e+00
0.0459091      	1.1455952e+00
0.0459461      	1.1484778e+00
0.0459829      	1.1489428e+00
0.0460197      	1.1518230e+00
0.0460565      	1.1522843e+00
0.0460932      	1.1551599e+00
0.0461299      	1.1556198e+00
0.0461665      	1.1584930e+00
0.0462031      	1.1589515e+00
0.0462396      	1.1618222e+00
0.0462761      	1.1622793e+00
0.0463125      	1.1651477e+00
0.0463489      	1.1656034e+00
0.0463852      	1.1684693e+00
0.0464215      	1.1689237e+00
0.0464577      	1.1717872e+00
0.0464939      	1.1722402e+00
0.04653        	1.1751013e+00
0.0465661      	1.1755530e+00
0.0466021      	1.1784117e+00
0.0466381      	1.1788621e+00
0.046674       	1.1817184e+00
0.0467099      	1.1821674e+00
0.0467458      	1.1850214e+00
0.0467816      	1.1854691e+00
0.0468173      	1.1883207e+00
0.046853       	1.1887672e+00
0.0468887      	1.1916164e+00
0.0469243      	1.1920616e+00
0.0469599      	1.1949085e+00
0.0469954      	1.1953524e+00
0.0470309      	1.1981969e+00
0.0470663      	1.1986433e+00
0.0471017      	1.2014861e+00
0.047137       	1.2019312e+00
0.0471723      	1.2047716e+00
0.0472075      	1.2052155e+00
0.0472428      	1.2080537e+00
0.0472779      	1.2084963e+00
0.047313       	1.2113321e+00
0.0473481      	1.2117735e+00
0.0473831      	1.2146071e+00
0.0474181      	1.2150472e+00
0.047453       	1.2178785e+00
0.0474879      	1.2183174e+00
0.0475228      	1.2211464e+00
0.0475576      	1.2215842e+00
0.0475923      	1.2244109e+00
0.047627       	1.2248475e+00
0.0476617      	1.2276719e+00
0.0476964      	1.2281073e+00
0.0477309      	1.2309295e+00
0.0477655      	1.2313637e+00
0.0478         	1.2341837e+00
0.0478344      	1.2346167e+00
0.0478689      	1.2374345e+00
0.0479032      	1.2378663e+00
0.0479376      	1.2406819e+00
0.0479719      	1.2411126e+00
0.0480061      	1.2439259e+00
0.0480403      	1.2443555e+00
0.0480745      	1.2471665e+00
0.0481086      	1.2475950e+00
0.0481427      	1.2504039e+00
0.0481767      	1.2508312e+00
0.0482107      	1.2536379e+00
0.0482447      	1.2540641e+00
0.0482786      	1.2568686e+00
0.0483125      	1.2572937e+00
0.0483463      	1.2600961e+00
0.0483801      	1.2605201e+00
0.0484138      	1.2633203e+00
0.0484476      	1.2637432e+00
0.0484812      	1.2665412e+00
0.0485149      	1.2669630e+00
0.0485485      	1.2697589e+00
0.048582       	1.2701796e+00
0.0486155      	1.2729734e+00
0.048649       	1.2733930e+00
0.0486824      	1.2761846e+00
0.0487158      	1.2766032e+00
0.0487492      	1.2793927e+00
0.0487825      	1.2798103e+00
0.0488158      	1.2825976e+00
0.048849       	1.2830141e+00
0.0488822      	1.2857994e+00
0.0489154      	1.2862149e+00
0.0489485      	1.2889980e+00
0.0489816      	1.2894124e+00
0.0490146      	1.2921935e+00
0.0490476      	1.2926069e+00
0.0490806      	1.2953859e+00
0.0491135      	1.2957983e+00
0.0491464      	1.2985752e+00
0.0491793      	1.2989865e+00
0.0492121      	1.3017614e+00
0.0492449      	1.3021717e+00
0.0492776      	1.3049445e+00
0.0493103      	1.3053538e+00
0.049343       	1.3081246e+00
0.0493756      	1.3085329e+00
0.0494082      	1.3113016e+00
0.0494408      	1.3117090e+00
0.0494733      	1.3144757e+00
0.0495058      	1.3148820e+00
0.0495382      	1.3176467e+00
0.0495706      	1.3180520e+00
0.049603       	1.3208147e+00
0.0496353      	1.3212191e+00
0.0496676      	1.3239797e+00
0.0496999      	1.3243831e+00
0.0497321      	1.3271418e+00
0.0497643      	1.3275442e+00
0.0497965      	1.3303009e+00
0.0498286      	1.3307024e+00
0.0498607      	1.3334570e+00
0.0498927      	1.3338576e+00
0.0499247      	1.3366103e+00
0.0499567      	1.3370099e+00
0.0499886      	1.3397606e+00
0.0500206      	1.3401593e+00
0.0500524      	1.3419519e+00
0.0500843      	1.3418220e+00
0.0501162      	1.3436136e+00
0.050148       	1.3434836e+00
0.0501798      	1.3452742e+00
0.0502116      	1.3451441e+00
0.0502434      	1.3469338e+00
0.0502752      	1.3468035e+00
0.050307       	1.3485923e+00
0.0503388      	1.3484619e+00
0.0503705      	1.3502498e+00
0.0504022      	1.3501193e+00
0.0504339      	1.3519063e+00
0.0504656      	1.3517758e+00
0.0504973      	1.3535618e+00
0.050529       	1.3534312e+00
0.0505606      	1.3552163e+00
0.0505923      	1.3550856e+00
0.0506239      	1.3568698e+00
0.0506555      	1.3567391e+00
0.0506871      	1.3585224e+00
0.0507187      	1.3583916e+00
0.0507503      	1.3601739e+00
0.0507818      	1.3600431e+00
0.0508134      	1.3618245e+00
0.0508449      	1.3616936e+00
0.0508764      	1.3634741e+00
0.0509079      	1.3633431e+00
0.0509394      	1.3651227e+00
0.0509708      	1.3649916e+00
0.0510023      	1.3667703e+00
0.0510337      	1.3666394e+00
0.0510652      	1.3684210e+00
0.0510966      	1.3682900e+00
0.051128       	1.3700706e+00
0.0511594      	1.3699396e+00
0.0511907      	1.3717192e+00
0.0512221      	1.3715881e+00
0.0512534      	1.3733669e+00
0.0512848      	1.3732357e+00
0.0513161      	1.3750135e+00
0.0513474      	1.3748822e+00
0.0513787      	1.3766591e+00
0.0514099      	1.3765277e+00
0.0514412      	1.3783037e+00
0.0514725      	1.3781723e+00
0.0515037      	1.3799473e+00
0.0515349      	1.3798158e+00
0.0515661      	1.3815899e+00
0.0515973      	1.3814582e+00
0.0516285      	1.3832314e+00
0.0516596      	1.3830997e+00
0.0516908      	1.3848719e+00
0.0517219      	1.3847401e+00
0.051753       	1.3865114e+00
0.0517842      	1.3863795e+00
0.0518153      	1.3881499e+00
0.0518463      	1.3880179e+00
0.0518774      	1.3897874e+00
0.0519085      	1.3896553e+00
0.0519395      	1.3914238e+00
0.0519705      	1.3912916e+00
0.0520015      	1.3930592e+00
0.0520325      	1.3929270e+00
0.0520635      	1.3946936e+00
0.0520945      	1.3945613e+00
0.0521255      	1.3963270e+00
0.0521564      	1.3961945e+00
0.0521873      	1.3979593e+00
0.0522183      	1.3978268e+00
0.0522492      	1.3995907e+00
0.0522801      	1.3994580e+00
0.0523109      	1.4012210e+00
0.0523418      	1.4010882e+00
0.0523727      	1.4028503e+00
0.0524035      	1.4027174e+00
0.0524343      	1.4044785e+00
0.0524651      	1.4043456e+00
0.0524959      	1.4061057e+00
0.0525267      	1.4059727e+00
0.0525575      	1.4077320e+00
0.0525883      	1.4075989e+00
0.052619       	1.4093572e+00
0.0526497      	1.4092240e+00
0.0526805      	1.4109814e+00
0.0527112      	1.4108481e+00
0.0527419      	1.4126045e+00
0.0527725      	1.4124711e+00
0.0528032      	1.4142267e+00
0.0528339      	1.4140932e+00
0.0528645      	1.4158478e+00
0.0528951      	1.4157143e+00
0.0529257      	1.4174680e+00
0.0529563      	1.4173343e+00
0.0529869      	1.4190871e+00
0.0530175      	1.4189534e+00
0.0530481      	1.4207052e+00
0.0530786      	1.4205714e+00
0.0531092      	1.4223223e+00
0.0531397      	1.4221884e+00
0.0531702      	1.4239384e+00
0.0532007      	1.4238044e+00
0.0532312      	1.4255535e+00
0.0532617      	1.4254195e+00
0.0532921      	1.4271676e+00
0.0533226      	1.4270335e+00
0.053353       	1.4287808e+00
0.0533834      	1.4286465e+00
0.0534138      	1.4303929e+00
0.0534442      	1.4302586e+00
0.0534746      	1.4320040e+00
0.053505       	1.4318697e+00
0.0535354      	1.4336142e+00
0.0535657      	1.4334797e+00
0.053596       	1.4352234e+00
0.0536264      	1.4350888e+00
0.0536567      	1.4368315e+00
0.053687       	1.4366969e+00
0.0537172      	1.4384388e+00
0.0537475      	1.4383041e+00
0.0537778      	1.4400450e+00
0.053808       	1.4399102e+00
0.0538383      	1.4416503e+00
0.0538685      	1.4415154e+00
0.0538987      	1.4432545e+00
0.0539289      	1.4431197e+00
0.0539591      	1.4448579e+00
0.0539892      	1.4447229e+00
0.0540194      	1.4464602e+00
0.0540495      	1.4463227e+00
0.0540797      	1.4480578e+00
0.0541098      	1.4479202e+00
0.0541399      	1.4496543e+00
0.05417        	1.4495167e+00
0.0542001      	1.4512500e+00
0.0542302      	1.4511123e+00
0.0542602      	1.4528447e+00
0.0542903      	1.4527069e+00
0.0543203      	1.4544384e+00
0.0543503      	1.4543006e+00
0.0543803      	1.4560312e+00
0.0544103      	1.4558934e+00
0.0544403      	1.4576231e+00
0.0544703      	1.4574852e+00
0.0545002      	1.4592140e+00
0.0545302      	1.4590761e+00
0.0545601      	1.4608041e+00
0.0545901      	1.4606661e+00
0.05462        	1.4623932e+00
0.0546499      	1.4622551e+00
0.0546798      	1.4639814e+00
0.0547096      	1.4638433e+00
0.0547395      	1.4655687e+00
0.0547694      	1.4654305e+00
0.0547992      	1.4671550e+00
0.054829       	1.4670169e+00
0.0548589      	1.4687405e+00
0.0548887      	1.4686023e+00
0.0549184      	1.4703251e+00
0.0549482      	1.4701868e+00
0.054978       	1.4719087e+00
0.0550078      	1.4717704e+00
0.0550375      	1.4734925e+00
0.0550672      	1.4733570e+00
0.055097       	1.4750782e+00
0.0551267      	1.4749427e+00
0.0551564      	1.4766630e+00
0.0551861      	1.4765275e+00
0.0552157      	1.4782470e+00
0.0552454      	1.4781114e+00
0.055275       	1.4798300e+00
0.0553047      	1.4796944e+00
0.0553343      	1.4814122e+00
0.0553639      	1.4812765e+00
0.0553935      	1.4829934e+00
0.0554231      	1.4828578e+00
0.0554527      	1.4845739e+00
0.0554823      	1.4844382e+00
0.0555118      	1.4861534e+00
0.0555414      	1.4860177e+00
0.0555709      	1.4877321e+00
0.0556004      	1.4875963e+00
0.0556299      	1.4893099e+00
0.0556594      	1.4891741e+00
0.0556889      	1.4908869e+00
0.0557184      	1.4907511e+00
0.0557479      	1.4924630e+00
0.0557773      	1.4923272e+00
0.0558068      	1.4940382e+00
0.0558362      	1.4939024e+00
0.0558656      	1.4956126e+00
0.055895       	1.4954768e+00
0.0559244      	1.4971862e+00
0.0559538      	1.4970503e+00
0.0559832      	1.4987589e+00
0.0560125      	1.4986231e+00
0.0560419      	1.5003308e+00
0.0560712      	1.5001949e+00
0.0561005      	1.5019018e+00
0.0561298      	1.5017660e+00
0.0561591      	1.5034721e+00
0.0561884      	1.5033362e+00
0.0562177      	1.5050415e+00
0.056247       	1.5049056e+00
0.0562762      	1.5066100e+00
0.0563055      	1.5064742e+00
0.0563347      	1.5081778e+00
0.0563639      	1.5080419e+00
0.0563932      	1.5097447e+00
0.0564224      	1.5096089e+00
0.0564515      	1.5113109e+00
0.0564807      	1.5111750e+00
0.0565099      	1.5128762e+00
0.056539       	1.5127404e+00
0.0565682      	1.5144407e+00
0.0565973      	1.5143049e+00
0.0566264      	1.5160045e+00
0.0566556      	1.5158686e+00
0.0566847      	1.5175674e+00
0.0567137      	1.5174316e+00
0.0567428      	1.5191295e+00
0.0567719      	1.5189937e+00
0.0568009      	1.5206909e+00
0.05683        	1.5205551e+00
0.056859       	1.5222514e+00
0.056888       	1.5221157e+00
0.056917       	1.5238112e+00
0.056946       	1.5236754e+00
0.056975       	1.5253702e+00
0.057004       	1.5252345e+00
0.057033       	1.5269284e+00
0.0570619      	1.5267927e+00
0.0570909      	1.5284859e+00
0.0571198      	1.5283502e+00
0.0571487      	1.5300425e+00
0.0571776      	1.5299069e+00
0.0572065      	1.5315985e+00
0.0572354      	1.5314628e+00
0.0572643      	1.5331536e+00
0.0572932      	1.5330180e+00
0.057322       	1.5347080e+00
0.0573509      	1.5345724e+00
0.0573797      	1.5362616e+00
0.0574085      	1.5361261e+00
0.0574374      	1.5378145e+00
0.0574662      	1.5376790e+00
0.057495       	1.5393666e+00
0.0575237      	1.5392311e+00
0.0575525      	1.5409180e+00
0.0575813      	1.5407825e+00
0.05761        	1.5424686e+00
0.0576388      	1.5423332e+00
0.0576675      	1.5440185e+00
0.0576962      	1.5438831e+00
0.0577249      	1.5455677e+00
0.0577536      	1.5454323e+00
0.0577823      	1.5471161e+00
0.057811       	1.5469808e+00
0.0578396      	1.5486638e+00
0.0578683      	1.5485285e+00
0.0578969      	1.5502107e+00
0.0579255      	1.5500755e+00
0.0579542      	1.5517569e+00
0.0579828      	1.5516217e+00
0.0580114      	1.5533024e+00
0.05804        	1.5531658e+00
0.0580685      	1.5548435e+00
0.0580971      	1.5547069e+00
0.0581257      	1.5563839e+00
0.0581542      	1.5562473e+00
0.0581827      	1.5579236e+00
0.0582113      	1.5577871e+00
0.0582398      	1.5594625e+00
0.0582683      	1.5593261e+00
0.0582968      	1.5610008e+00
0.0583253      	1.5608644e+00
0.0583537      	1.5625383e+00
0.0583822      	1.5624019e+00
0.0584107      	1.5640751e+00
0.0584391      	1.5639388e+00
0.0584675      	1.5656113e+00
0.0584959      	1.5654750e+00
0.0585244      	1.5671467e+00
0.0585528      	1.5670105e+00
0.0585811      	1.5686815e+00
0.0586095      	1.5685453e+00
0.0586379      	1.5702155e+00
0.0586663      	1.5700794e+00
0.0586946      	1.5717489e+00
0.0587229      	1.5716129e+00
0.0587513      	1.5732816e+00
0.0587796      	1.5731456e+00
0.0588079      	1.5748136e+00
0.0588362      	1.5746777e+00
0.0588645      	1.5763449e+00
0.0588928      	1.5762090e+00
0.058921       	1.5778755e+00
0.0589493      	1.5777397e+00
0.0589775      	1.5794055e+00
0.0590058      	1.5792698e+00
0.059034       	1.5809355e+00
0.0590622      	1.5808027e+00
0.0590904      	1.5824677e+00
0.0591186      	1.5823350e+00
0.0591468      	1.5839993e+00
0.059175       	1.5838667e+00
0.0592031      	1.5855302e+00
0.0592313      	1.5853976e+00
0.0592594      	1.5870604e+00
0.0592876      	1.5869279e+00
0.0593157      	1.5885899e+00
0.0593438      	1.5884575e+00
0.0593719      	1.5901188e+00
0.0594         	1.5899864e+00
0.0594281      	1.5916470e+00
0.0594562      	1.5915147e+00
0.0594842      	1.5931745e+00
0.0595123      	1.5930423e+00
0.0595403      	1.5947014e+00
0.0595684      	1.5945693e+00
0.0595964      	1.5962276e+00
0.0596244      	1.5960955e+00
0.0596524      	1.5977532e+00
0.0596804      	1.5976212e+00
0.0597084      	1.5992781e+00
0.0597364      	1.5991461e+00
0.0597643      	1.6008023e+00
0.0597923      	1.6006705e+00
0.0598202      	1.6023259e+00
0.0598482      	1.6021941e+00
0.0598761      	1.6038489e+00
0.059904       	1.6037171e+00
0.0599319      	1.6053712e+00
0.0599598      	1.6052395e+00
0.0599877      	1.6068928e+00
0.0600156      	1.6067612e+00
0.0600434      	1.6084138e+00
0.0600713      	1.6082823e+00
0.0600991      	1.6099341e+00
0.060127       	1.6098027e+00
0.0601548      	1.6114539e+00
0.0601826      	1.6113225e+00
0.0602104      	1.6129729e+00
0.0602382      	1.6128416e+00
0.060266       	1.6144913e+00
0.0602938      	1.6143601e+00
0.0603216      	1.6160091e+00
0.0603493      	1.6158780e+00
0.0603771      	1.6175263e+00
0.0604048      	1.6173952e+00
0.0604325      	1.6190428e+00
0.0604603      	1.6189118e+00
0.060488       	1.6205587e+00
0.0605157      	1.6204278e+00
0.0605434      	1.6220739e+00
0.0605711      	1.6219431e+00
0.0605987      	1.6235885e+00
0.0606264      	1.6234578e+00
0.060654       	1.6251025e+00
0.0606817      	1.6249719e+00
0.0607093      	1.6266159e+00
0.0607369      	1.6264853e+00
0.0607646      	1.6281286e+00
0.0607922      	1.6279981e+00
0.0608198      	1.6296407e+00
0.0608473      	1.6295103e+00
0.0608749      	1.6311522e+00
0.0609025      	1.6310219e+00
0.06093        	1.6326631e+00
0.0609576      	1.6325328e+00
0.0609851      	1.6341733e+00
0.0610127      	1.6340432e+00