# Region type : patch outlet
# Faces        : 34923
# Area         : 6.0186191e-04
# Scale factor : 1.0000000e+00
# Time         	areaAverage(p)
6e-05          	0.0000000e+00
0.000132       	8.1662851e-04
0.0002184      	9.8769943e-04
0.00032208     	2.0126028e-03
0.000446496    	2.4387685e-03
0.000595795    	3.7763375e-03
0.000774954    	4.5880599e-03
0.000989945    	6.4024407e-03
0.00124793     	7.8076889e-03
0.00155752     	1.0365274e-02
0.00192903     	1.2706673e-02
0.00237483     	1.6451936e-02
0.0029098      	2.0310597e-02
0.00355176     	2.6013849e-02
0.00429766     	3.2401345e-02
0.00475367     	4.0508372e-02
0.00497034     	4.1594444e-02
0.00518395     	4.5118998e-02
0.00542139     	4.6248624e-02
0.00568505     	5.0381772e-02
0.00595404     	5.2170124e-02
0.0062143      	5.6519547e-02
0.0064687      	5.8229800e-02
0.00672407     	6.2562594e-02
0.00698341     	6.4410379e-02
0.00724555     	6.8948890e-02
0.00750815     	7.0971470e-02
0.00777023     	7.5634541e-02
0.0080321      	7.7759977e-02
0.0082944      	8.2534542e-02
0.00855734     	8.4787911e-02
0.00882082     	8.9696266e-02
0.00908464     	9.2082010e-02
0.00934862     	9.7119062e-02
0.00961275     	9.9633292e-02
0.00987705     	1.0479404e-01
0.0101415      	1.0743382e-01
0.0104062      	1.1271635e-01
0.0106709      	1.1547849e-01
0.0109358      	1.2088558e-01
0.0112007      	1.2377300e-01
0.0114658      	1.2930515e-01
0.0117309      	1.3231862e-01
0.0119961      	1.3797653e-01
0.0122614      	1.4111664e-01
0.0125268      	1.4690917e-01
0.0127923      	1.5017707e-01
0.0130547      	1.5608407e-01
0.0133104      	1.5935285e-01
0.0135598      	1.6513346e-01
0.0138031      	1.6829131e-01
0.0140406      	1.7396372e-01
0.0142724      	1.7700928e-01
0.0144989      	1.8258059e-01
0.0147204      	1.8552442e-01
0.0149373      	1.9099847e-01
0.0151497      	1.9385064e-01
0.0153579      	1.9923080e-01
0.0155621      	2.0199743e-01
0.0157624      	2.0729742e-01
0.0159592      	2.0998817e-01
0.0161525      	2.1521465e-01
0.0163424      	2.1783569e-01
0.0165292      	2.2299438e-01
0.016713       	2.2555109e-01
0.0168938      	2.3064699e-01
0.0170719      	2.3314403e-01
0.0172473      	2.3818470e-01
0.0174201      	2.4063084e-01
0.0175903      	2.4561689e-01
0.0177582      	2.4801109e-01
0.0179238      	2.5294599e-01
0.0180872      	2.5529153e-01
0.0182484      	2.6017429e-01
0.0184075      	2.6247057e-01
0.0185646      	2.6730809e-01
0.0187197      	2.6956134e-01
0.0188729      	2.7435611e-01
0.0190244      	2.7656870e-01
0.019174       	2.8132418e-01
0.0193219      	2.8350447e-01
0.0194682      	2.8822147e-01
0.0196128      	2.9036519e-01
0.0197558      	2.9504559e-01
0.0198973      	2.9715455e-01
0.0200373      	3.0180008e-01
0.0201759      	3.0387400e-01
0.020313       	3.0848098e-01
0.0204487      	3.1052338e-01
0.0205831      	3.1509858e-01
0.0207162      	3.1711087e-01
0.020848       	3.2165565e-01
0.0209786      	3.2363912e-01
0.0211079      	3.2815474e-01
0.0212361      	3.3011062e-01
0.0213631      	3.3459823e-01
0.021489       	3.3652763e-01
0.0216137      	3.4098833e-01
0.0217374      	3.4289231e-01
0.02186        	3.4732709e-01
0.0219815      	3.4920663e-01
0.0221021      	3.5361645e-01
0.0222216      	3.5547828e-01
0.0223402      	3.5986504e-01
0.0224579      	3.6170417e-01
0.0225745      	3.6606764e-01
0.0226903      	3.6788488e-01
0.0228052      	3.7222585e-01
0.0229192      	3.7402196e-01
0.0230323      	3.7834116e-01
0.0231446      	3.8011495e-01
0.0232561      	3.8440830e-01
0.0233667      	3.8616239e-01
0.0234765      	3.9043535e-01
0.0235856      	3.9217038e-01
0.0236939      	3.9642359e-01
0.0238014      	3.9814017e-01
0.0239082      	4.0237420e-01
0.0240142      	4.0407290e-01
0.0241196      	4.0828831e-01
0.0242242      	4.0996967e-01
0.0243281      	4.1416698e-01
0.0244314      	4.1583152e-01
0.024534       	4.2001124e-01
0.0246359      	4.2165946e-01
0.0247372      	4.2582206e-01
0.0248378      	4.2745441e-01
0.0249378      	4.3160035e-01
0.0250372      	4.3321729e-01
0.025136       	4.3734940e-01
0.0252341      	4.3895534e-01
0.0253317      	4.4307160e-01
0.0254287      	4.4466292e-01
0.0255252      	4.4876374e-01
0.025621       	4.5034084e-01
0.0257163      	4.5442658e-01
0.0258111      	4.5598982e-01
0.0259053      	4.6006085e-01
0.025999       	4.6161059e-01
0.0260921      	4.6566726e-01
0.0261848      	4.6719764e-01
0.0262769      	4.7124022e-01
0.0263686      	4.7275780e-01
0.0264597      	4.7678669e-01
0.0265503      	4.7829176e-01
0.0266405      	4.8230726e-01
0.0267302      	4.8380014e-01
0.0268194      	4.8780255e-01
0.0269082      	4.8928352e-01
0.0269965      	4.9327311e-01
0.0270843      	4.9474245e-01
0.0271717      	4.9872537e-01
0.0272587      	5.0018357e-01
0.0273452      	5.0415419e-01
0.0274313      	5.0560125e-01
0.027517       	5.0955981e-01
0.0276022      	5.1099599e-01
0.0276871      	5.1494273e-01
0.0277715      	5.1636827e-01
0.0278555      	5.2030342e-01
0.0279391      	5.2171854e-01
0.0280224      	5.2564233e-01
0.0281052      	5.2704564e-01
0.0281877      	5.3095390e-01
0.0282698      	5.3234725e-01
0.0283515      	5.3624460e-01
0.0284328      	5.3762819e-01
0.0285138      	5.4151482e-01
0.0285944      	5.4288887e-01
0.0286746      	5.4676497e-01
0.0287545      	5.4812966e-01
0.0288341      	5.5199543e-01
0.0289133      	5.5335094e-01
0.0289921      	5.5720657e-01
0.0290707      	5.5855308e-01
0.0291488      	5.6239873e-01
0.0292267      	5.6373642e-01
0.0293042      	5.6757227e-01
0.0293814      	5.6890131e-01
0.0294583      	5.7272753e-01
0.0295348      	5.7404807e-01
0.0296111      	5.7786482e-01
0.029687       	5.7917703e-01
0.0297626      	5.8298445e-01
0.029838       	5.8428849e-01
0.029913       	5.8808674e-01
0.0299877      	5.8938276e-01
0.0300621      	5.9317199e-01
0.0301362      	5.9446493e-01
0.0302101      	5.9824622e-01
0.0302836      	5.9953140e-01
0.0303569      	6.0330393e-01
0.0304299      	6.0458149e-01
0.0305026      	6.0834540e-01
0.030575       	6.0961547e-01
0.0306472      	6.1337088e-01
0.0307191      	6.1463359e-01
0.0307907      	6.1838063e-01
0.030862       	6.1963612e-01
0.0309331      	6.2337491e-01
0.0310039      	6.2462328e-01
0.0310745      	6.2835364e-01
0.0311448      	6.2958968e-01
0.0312149      	6.3331204e-01
0.0312847      	6.3454122e-01
0.0313542      	6.3825571e-01
0.0314236      	6.3947814e-01
0.0314926      	6.4318485e-01
0.0315614      	6.4440065e-01
0.03163        	6.4809970e-01
0.0316984      	6.4930896e-01
0.0317665      	6.5300046e-01
0.0318343      	6.5420329e-01
0.031902       	6.5788734e-01
0.0319694      	6.5908385e-01
0.0320366      	6.6276054e-01
0.0321035      	6.6395081e-01
0.0321703      	6.6762025e-01
0.0322368      	6.6880439e-01
0.0323031      	6.7246666e-01
0.0323692      	6.7364477e-01
0.032435       	6.7729997e-01
0.0325006      	6.7847213e-01
0.0325661      	6.8212035e-01
0.0326313      	6.8328666e-01
0.0326963      	6.8692798e-01
0.0327611      	6.8808852e-01
0.0328257      	6.9172304e-01
0.0328901      	6.9287789e-01
0.0329543      	6.9650568e-01
0.0330182      	6.9765494e-01
0.033082       	7.0127764e-01
0.0331456      	7.0242526e-01
0.033209       	7.0604139e-01
0.0332722      	7.0718356e-01
0.0333352      	7.1079320e-01
0.033398       	7.1192999e-01
0.0334606      	7.1553321e-01
0.033523       	7.1666470e-01
0.0335853      	7.2026157e-01
0.0336473      	7.2138784e-01
0.0337092      	7.2497845e-01
0.0337709      	7.2609956e-01
0.0338324      	7.2968397e-01
0.0338937      	7.3080000e-01
0.0339548      	7.3437828e-01
0.0340158      	7.3548930e-01
0.0340766      	7.3906014e-01
0.0341372      	7.4016226e-01
0.0341976      	7.4372712e-01
0.0342579      	7.4482437e-01
0.0343179      	7.4838331e-01
0.0343779      	7.4947577e-01
0.0344376      	7.5302886e-01
0.0344972      	7.5411658e-01
0.0345566      	7.5766388e-01
0.0346158      	7.5874693e-01
0.0346749      	7.6228851e-01
0.0347338      	7.6336695e-01
0.0347926      	7.6690286e-01
0.0348512      	7.6797674e-01
0.0349096      	7.7150705e-01
0.0349679      	7.7257644e-01
0.035026       	7.7610119e-01
0.035084       	7.7716850e-01
0.0351418      	7.8069065e-01
0.0351994      	7.8175357e-01
0.0352569      	7.8527027e-01
0.0353143      	7.8632886e-01
0.0353715      	7.8984017e-01
0.0354285      	7.9089447e-01
0.0354854      	7.9440044e-01
0.0355422      	7.9545052e-01
0.0355987      	7.9895120e-01
0.0356552      	7.9999711e-01
0.0357115      	8.0349256e-01
0.0357677      	8.0453434e-01
0.0358237      	8.0802460e-01
0.0358795      	8.0906231e-01
0.0359353      	8.1254744e-01
0.0359908      	8.1358113e-01
0.0360463      	8.1706117e-01
0.0361016      	8.1808658e-01
0.0361568      	8.2156074e-01
0.0362118      	8.2258223e-01
0.0362667      	8.2605142e-01
0.0363215      	8.2706903e-01
0.0363761      	8.3053328e-01
0.0364306      	8.3154707e-01
0.0364849      	8.3500643e-01
0.0365391      	8.3601645e-01
0.0365932      	8.3947096e-01
0.0366472      	8.4047724e-01
0.036701       	8.4392695e-01
0.0367547      	8.4492954e-01
0.0368083      	8.4837449e-01
0.0368618      	8.4937343e-01
0.0369151      	8.5281366e-01
0.0369683      	8.5380899e-01
0.0370213      	8.5724455e-01
0.0370743      	8.5823631e-01
0.0371271      	8.6166724e-01
0.0371798      	8.6265547e-01
0.0372324      	8.6608180e-01
0.0372848      	8.6706655e-01
0.0373371      	8.7048832e-01
0.0373893      	8.7146962e-01
0.0374414      	8.7488688e-01
0.0374934      	8.7586477e-01
0.0375453      	8.7927755e-01
0.037597       	8.8025206e-01
0.0376486      	8.8366040e-01
0.0377001      	8.8463158e-01
0.0377515      	8.8803552e-01
0.0378028      	8.8900340e-01
0.0378539      	8.9240296e-01
0.037905       	8.9336758e-01
0.0379559      	8.9676281e-01
0.0380067      	8.9772421e-01
0.0380574      	9.0111580e-01
0.038108       	9.0207831e-01
0.0381585      	9.0546563e-01
0.0382089      	9.0642498e-01
0.0382592      	9.0980806e-01
0.0383093      	9.1076428e-01
0.0383594      	9.1414316e-01
0.0384093      	9.1509627e-01
0.0384591      	9.1847098e-01
0.0385089      	9.1942102e-01
0.0385585      	9.2279159e-01
0.038608       	9.2373860e-01
0.0386574      	9.2710506e-01
0.0387067      	9.2804906e-01
0.0387559      	9.3141145e-01
0.038805       	9.3235248e-01
0.038854       	9.3571083e-01
0.0389029      	9.3664891e-01
0.0389517      	9.4000325e-01
0.0390004      	9.4093842e-01
0.039049       	9.4428873e-01
0.0390975      	9.4521616e-01
0.0391459      	9.4856253e-01
0.0391941      	9.4948712e-01
0.0392423      	9.5282956e-01
0.0392904      	9.5375133e-01
0.0393384      	9.5708989e-01
0.0393863      	9.5800888e-01
0.0394341      	9.6134357e-01
0.0394819      	9.6225980e-01
0.0395295      	9.6559066e-01
0.039577       	9.6650415e-01
0.0396244      	9.6983121e-01
0.0396717      	9.7074200e-01
0.039719       	9.7406528e-01
0.0397661      	9.7497339e-01
0.0398132      	9.7829291e-01
0.0398601      	9.7919837e-01
0.039907       	9.8251417e-01
0.0399538      	9.8341700e-01
0.0400005      	9.8672911e-01
0.0400471      	9.8762968e-01
0.0400936      	9.9097144e-01
0.04014        	9.9186939e-01
0.0401863      	9.9520744e-01
0.0402326      	9.9610281e-01
0.0402787      	9.9943718e-01
0.0403248      	1.0003300e+00
0.0403707      	1.0036607e+00
0.0404166      	1.0045509e+00
0.0404624      	1.0078780e+00
0.0405081      	1.0087657e+00
0.0405537      	1.0120892e+00
0.0405993      	1.0129744e+00
0.0406447      	1.0162943e+00
0.0406901      	1.0171771e+00
0.0407354      	1.0204934e+00
0.0407806      	1.0213737e+00
0.0408257      	1.0246865e+00
0.0408707      	1.0255644e+00
0.0409157      	1.0288737e+00
0.0409605      	1.0297491e+00
0.0410053      	1.0330549e+00
0.04105        	1.0339280e+00
0.0410946      	1.0372303e+00
0.0411391      	1.0381011e+00
0.0411836      	1.0413999e+00
0.041228       	1.0422684e+00
0.0412723      	1.0455638e+00
0.0413165      	1.0464299e+00
0.0413606      	1.0497219e+00
0.0414047      	1.0505857e+00
0.0414486      	1.0538744e+00
0.0414925      	1.0547359e+00
0.0415363      	1.0580212e+00
0.0415801      	1.0588805e+00
0.0416237      	1.0621624e+00
0.0416673      	1.0630195e+00
0.0417108      	1.0662981e+00
0.0417543      	1.0671529e+00
0.0417976      	1.0704283e+00
0.0418409      	1.0712809e+00
0.0418841      	1.0745530e+00
0.0419272      	1.0754034e+00
0.0419703      	1.0786722e+00
0.0420133      	1.0795205e+00
0.0420562      	1.0827847e+00
0.042099       	1.0836276e+00
0.0421418      	1.0868885e+00
0.0421845      	1.0877294e+00
0.0422271      	1.0909871e+00
0.0422696      	1.0918259e+00
0.0423121      	1.0950804e+00
0.0423545      	1.0959171e+00
0.0423968      	1.0991685e+00
0.0424391      	1.1000032e+00
0.0424812      	1.1032514e+00
0.0425233      	1.1040840e+00
0.0425654      	1.1073291e+00
0.0426074      	1.1081598e+00
0.0426493      	1.1114018e+00
0.0426911      	1.1122304e+00
0.0427329      	1.1154693e+00
0.0427746      	1.1162959e+00
0.0428162      	1.1195318e+00
0.0428577      	1.1203565e+00
0.0428992      	1.1235893e+00
0.0429407      	1.1244120e+00
0.042982       	1.1276417e+00
0.0430233      	1.1284625e+00
0.0430645      	1.1316919e+00
0.0431057      	1.1325127e+00
0.0431468      	1.1357391e+00
0.0431878      	1.1365580e+00
0.0432287      	1.1397814e+00
0.0432696      	1.1405984e+00
0.0433105      	1.1438188e+00
0.0433512      	1.1446340e+00
0.0433919      	1.1478514e+00
0.0434325      	1.1486648e+00
0.0434731      	1.1518792e+00
0.0435136      	1.1526908e+00
0.043554       	1.1559023e+00
0.0435944      	1.1567120e+00
0.0436347      	1.1599206e+00
0.043675       	1.1607285e+00
0.0437152      	1.1639342e+00
0.0437553      	1.1647403e+00
0.0437953      	1.1679432e+00
0.0438353      	1.1687475e+00
0.0438753      	1.1719474e+00
0.0439152      	1.1727500e+00
0.043955       	1.1759471e+00
0.0439947      	1.1767479e+00
0.0440344      	1.1799422e+00
0.044074       	1.1807413e+00
0.0441136      	1.1839327e+00
0.0441531      	1.1847301e+00
0.0441926      	1.1879187e+00
0.044232       	1.1887144e+00
0.0442713      	1.1919003e+00
0.0443106      	1.1926942e+00
0.0443498      	1.1958773e+00
0.0443889      	1.1966695e+00
0.044428       	1.1998499e+00
0.0444671      	1.2006405e+00
0.044506       	1.2038180e+00
0.044545       	1.2046070e+00
0.0445838      	1.2077818e+00
0.0446226      	1.2085691e+00
0.0446614      	1.2117413e+00
0.0447001      	1.2125269e+00
0.0447387      	1.2156963e+00
0.0447773      	1.2164804e+00
0.0448158      	1.2196471e+00
0.0448543      	1.2204296e+00
0.0448927      	1.2235936e+00
0.044931       	1.2243745e+00
0.0449693      	1.2275358e+00
0.0450076      	1.2283151e+00
0.0450458      	1.2314738e+00
0.0450839      	1.2322515e+00
0.045122       	1.2354076e+00
0.04516        	1.2361838e+00
0.0451979      	1.2393372e+00
0.0452359      	1.2401119e+00
0.0452737      	1.2432627e+00
0.0453115      	1.2440358e+00
0.0453493      	1.2471840e+00
0.045387       	1.2479556e+00
0.0454246      	1.2511012e+00
0.0454622      	1.2518713e+00
0.0454997      	1.2550143e+00
0.0455372      	1.2557829e+00
0.0455747      	1.2589234e+00
0.045612       	1.2596905e+00
0.0456494      	1.2628284e+00
0.0456867      	1.2635940e+00
0.0457239      	1.2667294e+00
0.0457611      	1.2674936e+00
0.0457982      	1.2706264e+00
0.0458352      	1.2713891e+00
0.0458723      	1.2745194e+00
0.0459092      	1.2752807e+00
0.0459462      	1.2784085e+00
0.045983       	1.2791684e+00
0.0460198      	1.2822937e+00
0.0460566      	1.2830498e+00
0.0460933      	1.2861706e+00
0.04613        	1.2869253e+00
0.0461666      	1.2900436e+00
0.0462032      	1.2907969e+00
0.0462397      	1.2939127e+00
0.0462762      	1.2946647e+00
0.0463126      	1.2977781e+00
0.0463489      	1.2985287e+00
0.0463853      	1.3016396e+00
0.0464215      	1.3023889e+00
0.0464578      	1.3054974e+00
0.046494       	1.3062453e+00
0.0465301      	1.3093513e+00
0.0465662      	1.3100979e+00
0.0466022      	1.3132016e+00
0.0466382      	1.3139468e+00
0.0466741      	1.3170481e+00
0.04671        	1.3177920e+00
0.0467459      	1.3208909e+00
0.0467817      	1.3216335e+00
0.0468174      	1.3247300e+00
0.0468531      	1.3254713e+00
0.0468888      	1.3285655e+00
0.0469244      	1.3293055e+00
0.04696        	1.3323973e+00
0.0469955      	1.3331360e+00
0.047031       	1.3362255e+00
0.0470664      	1.3369666e+00
0.0471018      	1.3400543e+00
0.0471371      	1.3407942e+00
0.0471724      	1.3438796e+00
0.0472076      	1.3446182e+00
0.0472428      	1.3477013e+00
0.047278       	1.3484387e+00
0.0473131      	1.3515194e+00
0.0473482      	1.3522556e+00
0.0473832      	1.3553340e+00
0.0474182      	1.3560689e+00
0.0474531      	1.3591451e+00
0.047488       	1.3598787e+00
0.0475229      	1.3629526e+00
0.0475577      	1.3636851e+00
0.0475924      	1.3667567e+00
0.0476271      	1.3674879e+00
0.0476618      	1.3705573e+00
0.0476964      	1.3712874e+00
0.047731       	1.3743545e+00
0.0477656      	1.3750833e+00
0.0478001      	1.3781482e+00
0.0478345      	1.3788758e+00
0.0478689      	1.3819385e+00
0.0479033      	1.3826650e+00
0.0479377      	1.3857254e+00
0.0479719      	1.3864507e+00
0.0480062      	1.3895089e+00
0.0480404      	1.3902331e+00
0.0480746      	1.3932891e+00
0.0481087      	1.3940121e+00
0.0481428      	1.3970659e+00
0.0481768      	1.3977877e+00
0.0482108      	1.4008394e+00
0.0482448      	1.4015601e+00
0.0482787      	1.4046095e+00
0.0483125      	1.4053291e+00
0.0483464      	1.4083764e+00
0.0483802      	1.4090948e+00
0.0484139      	1.4121400e+00
0.0484476      	1.4128573e+00
0.0484813      	1.4159003e+00
0.0485149      	1.4166165e+00
0.0485485      	1.4196574e+00
0.0485821      	1.4203725e+00
0.0486156      	1.4234112e+00
0.0486491      	1.4241252e+00
0.0486825      	1.4271618e+00
0.0487159      	1.4278747e+00
0.0487493      	1.4309092e+00
0.0487826      	1.4316211e+00
0.0488159      	1.4346534e+00
0.0488491      	1.4353642e+00
0.0488823      	1.4383945e+00
0.0489155      	1.4391042e+00
0.0489486      	1.4421323e+00
0.0489817      	1.4428410e+00
0.0490147      	1.4458671e+00
0.0490477      	1.4465748e+00
0.0490807      	1.4495987e+00
0.0491136      	1.4503053e+00
0.0491465      	1.4533272e+00
0.0491794      	1.4540328e+00
0.0492122      	1.4570526e+00
0.0492449      	1.4577572e+00
0.0492777      	1.4607749e+00
0.0493104      	1.4614785e+00
0.0493431      	1.4644942e+00
0.0493757      	1.4651968e+00
0.0494083      	1.4682104e+00
0.0494408      	1.4689120e+00
0.0494734      	1.4719235e+00
0.0495058      	1.4726241e+00
0.0495383      	1.4756336e+00
0.0495707      	1.4763333e+00
0.0496031      	1.4793408e+00
0.0496354      	1.4800394e+00
0.0496677      	1.4830449e+00
0.0497         	1.4837426e+00
0.0497322      	1.4867460e+00
0.0497644      	1.4874428e+00
0.0497965      	1.4904442e+00
0.0498287      	1.4911400e+00
0.0498607      	1.4941394e+00
0.0498928      	1.4948342e+00
0.0499248      	1.4978316e+00
0.0499568      	1.4985256e+00
0.0499887      	1.5015210e+00
0.0500206      	1.5022140e+00
0.0500525      	1.5042475e+00
0.0500844      	1.5044157e+00
0.0501162      	1.5064482e+00
0.0501481      	1.5066162e+00
0.0501799      	1.5086477e+00
0.0502117      	1.5088156e+00
0.0502435      	1.5108462e+00
0.0502753      	1.5110140e+00
0.0503071      	1.5130435e+00
0.0503388      	1.5132113e+00
0.0503706      	1.5152398e+00
0.0504023      	1.5154075e+00
0.050434       	1.5174351e+00
0.0504657      	1.5176027e+00
0.0504974      	1.5196294e+00
0.0505291      	1.5197969e+00
0.0505607      	1.5218226e+00
0.0505924      	1.5219900e+00
0.050624       	1.5240149e+00
0.0506556      	1.5241822e+00
0.0506872      	1.5262061e+00
0.0507188      	1.5263733e+00
0.0507503      	1.5283962e+00
0.0507819      	1.5285634e+00
0.0508134      	1.5305854e+00
0.050845       	1.5307525e+00
0.0508765      	1.5327735e+00
0.050908       	1.5329405e+00
0.0509395      	1.5349606e+00
0.0509709      	1.5351275e+00
0.0510024      	1.5371467e+00
0.0510338      	1.5373138e+00
0.0510652      	1.5393358e+00
0.0510967      	1.5395028e+00
0.0511281      	1.5415238e+00
0.0511594      	1.5416908e+00
0.0511908      	1.5437108e+00
0.0512222      	1.5438777e+00
0.0512535      	1.5458968e+00
0.0512848      	1.5460635e+00
0.0513162      	1.5480817e+00
0.0513475      	1.5482484e+00
0.0513788      	1.5502656e+00
0.05141        	1.5504321e+00
0.0514413      	1.5524484e+00
0.0514725      	1.5526149e+00
0.0515038      	1.5546302e+00
0.051535       	1.5547965e+00
0.0515662      	1.5568109e+00
0.0515974      	1.5569771e+00
0.0516286      	1.5589905e+00
0.0516597      	1.5591567e+00
0.0516909      	1.5611691e+00
0.051722       	1.5613352e+00
0.0517531      	1.5633467e+00
0.0517842      	1.5635127e+00
0.0518153      	1.5655232e+00
0.0518464      	1.5656891e+00
0.0518775      	1.5676986e+00
0.0519085      	1.5678644e+00
0.0519396      	1.5698730e+00
0.0519706      	1.5700387e+00
0.0520016      	1.5720463e+00
0.0520326      	1.5722119e+00
0.0520636      	1.5742186e+00
0.0520946      	1.5743841e+00
0.0521255      	1.5763898e+00
0.0521565      	1.5765552e+00
0.0521874      	1.5785600e+00
0.0522183      	1.5787252e+00
0.0522492      	1.5807291e+00
0.0522801      	1.5808942e+00
0.052311       	1.5828971e+00
0.0523419      	1.5830622e+00
0.0523727      	1.5850641e+00
0.0524036      	1.5852291e+00
0.0524344      	1.5872300e+00
0.0524652      	1.5873949e+00
0.052496       	1.5893949e+00
0.0525268      	1.5895597e+00
0.0525576      	1.5915587e+00
0.0525883      	1.5917234e+00
0.0526191      	1.5937215e+00
0.0526498      	1.5938861e+00
0.0526805      	1.5958832e+00
0.0527112      	1.5960477e+00
0.0527419      	1.5980439e+00
0.0527726      	1.5982083e+00
0.0528033      	1.6002036e+00
0.0528339      	1.6003678e+00
0.0528646      	1.6023621e+00
0.0528952      	1.6025263e+00
0.0529258      	1.6045197e+00
0.0529564      	1.6046837e+00
0.052987       	1.6066762e+00
0.0530176      	1.6068401e+00
0.0530482      	1.6088316e+00
0.0530787      	1.6089955e+00
0.0531092      	1.6109861e+00
0.0531398      	1.6111498e+00
0.0531703      	1.6131394e+00
0.0532008      	1.6133031e+00
0.0532313      	1.6152918e+00
0.0532617      	1.6154554e+00
0.0532922      	1.6174431e+00
0.0533227      	1.6176066e+00
0.0533531      	1.6195934e+00
0.0533835      	1.6197568e+00
0.0534139      	1.6217427e+00
0.0534443      	1.6219060e+00
0.0534747      	1.6238909e+00
0.0535051      	1.6240542e+00
0.0535354      	1.6260382e+00
0.0535658      	1.6262013e+00
0.0535961      	1.6281844e+00
0.0536264      	1.6283474e+00
0.0536567      	1.6303296e+00
0.053687       	1.6304925e+00
0.0537173      	1.6324738e+00
0.0537476      	1.6326366e+00
0.0537779      	1.6346169e+00
0.0538081      	1.6347797e+00
0.0538383      	1.6367591e+00
0.0538686      	1.6369218e+00
0.0538988      	1.6389003e+00
0.053929       	1.6390629e+00
0.0539591      	1.6410405e+00
0.0539893      	1.6412030e+00
0.0540195      	1.6431797e+00
0.0540496      	1.6433396e+00
0.0540797      	1.6453140e+00
0.0541099      	1.6454739e+00
0.05414        	1.6474473e+00
0.0541701      	1.6476071e+00
0.0542002      	1.6495796e+00
0.0542302      	1.6497394e+00
0.0542603      	1.6517110e+00
0.0542903      	1.6518707e+00
0.0543204      	1.6538414e+00
0.0543504      	1.6540011e+00
0.0543804      	1.6559709e+00
0.0544104      	1.6561304e+00
0.0544404      	1.6580993e+00
0.0544704      	1.6582589e+00
0.0545003      	1.6602268e+00
0.0545303      	1.6603863e+00
0.0545602      	1.6623534e+00
0.0545901      	1.6625128e+00
0.0546201      	1.6644790e+00
0.05465        	1.6646384e+00
0.0546798      	1.6666037e+00
0.0547097      	1.6667630e+00
0.0547396      	1.6687274e+00
0.0547694      	1.6688866e+00
0.0547993      	1.6708501e+00
0.0548291      	1.6710093e+00
0.0548589      	1.6729720e+00
0.0548887      	1.6731311e+00
0.0549185      	1.6750929e+00
0.0549483      	1.6752520e+00
0.0549781      	1.6772128e+00
0.0550078      	1.6773719e+00
0.0550376      	1.6793329e+00
0.0550673      	1.6794947e+00
0.055097       	1.6814549e+00
0.0551267      	1.6816166e+00
0.0551564      	1.6835759e+00
0.0551861      	1.6837376e+00
0.0552158      	1.6856960e+00
0.0552455      	1.6858577e+00
0.0552751      	1.6878152e+00
0.0553048      	1.6879769e+00
0.0553344      	1.6899335e+00
0.055364       	1.6900951e+00
0.0553936      	1.6920508e+00
0.0554232      	1.6922124e+00
0.0554528      	1.6941673e+00
0.0554823      	1.6943289e+00
0.0555119      	1.6962829e+00
0.0555414      	1.6964444e+00
0.055571       	1.6983975e+00
0.0556005      	1.6985590e+00
0.05563        	1.7005113e+00
0.0556595      	1.7006728e+00
0.055689       	1.7026242e+00
0.0557185      	1.7027856e+00
0.0557479      	1.7047362e+00
0.0557774      	1.7048976e+00
0.0558068      	1.7068473e+00
0.0558363      	1.7070087e+00
0.0558657      	1.7089575e+00
0.0558951      	1.7091189e+00
0.0559245      	1.7110669e+00
0.0559539      	1.7112283e+00
0.0559832      	1.7131754e+00
0.0560126      	1.7133367e+00
0.0560419      	1.7152830e+00
0.0560713      	1.7154443e+00
0.0561006      	1.7173898e+00
0.0561299      	1.7175511e+00
0.0561592      	1.7194957e+00
0.0561885      	1.7196570e+00
0.0562178      	1.7216007e+00
0.0562471      	1.7217620e+00
0.0562763      	1.7237049e+00
0.0563056      	1.7238662e+00
0.0563348      	1.7258083e+00
0.056364       	1.7259695e+00
0.0563932      	1.7279108e+00
0.0564224      	1.7280720e+00
0.0564516      	1.7300125e+00
0.0564808      	1.7301737e+00
0.05651        	1.7321133e+00
0.0565391      	1.7322745e+00
0.0565683      	1.7342133e+00
0.0565974      	1.7343745e+00
0.0566265      	1.7363124e+00
0.0566556      	1.7364737e+00
0.0566847      	1.7384108e+00
0.0567138      	1.7385720e+00
0.0567429      	1.7405083e+00
0.056772       	1.7406695e+00
0.056801       	1.7426050e+00
0.0568301      	1.7427662e+00
0.0568591      	1.7447008e+00
0.0568881      	1.7448621e+00
0.0569171      	1.7467959e+00
0.0569461      	1.7469571e+00
0.0569751      	1.7488901e+00
0.0570041      	1.7490514e+00
0.0570331      	1.7509836e+00
0.057062       	1.7511449e+00
0.057091       	1.7530762e+00
0.0571199      	1.7532375e+00
0.0571488      	1.7551681e+00
0.0571777      	1.7553294e+00
0.0572066      	1.7572591e+00
0.0572355      	1.7574204e+00
0.0572644      	1.7593494e+00
0.0572933      	1.7595107e+00
0.0573221      	1.7614388e+00
0.057351       	1.7616002e+00
0.0573798      	1.7635275e+00
0.0574086      	1.7636888e+00
0.0574374      	1.7656154e+00
0.0574662      	1.7657768e+00
0.057495       	1.7677025e+00
0.0575238      	1.7678639e+00
0.0575526      	1.7697888e+00
0.0575813      	1.7699502e+00
0.0576101      	1.7718744e+00
0.0576388      	1.7720358e+00
0.0576676      	1.7739591e+00
0.0576963      	1.7741206e+00
0.057725       	1.7760432e+00
0.0577537      	1.7762047e+00
0.0577824      	1.7781264e+00
0.057811       	1.7782879e+00
0.0578397      	1.7802089e+00
0.0578683      	1.7803704e+00
0.057897       	1.7822906e+00
0.0579256      	1.7824522e+00
0.0579542      	1.7843716e+00
0.0579828      	1.7845332e+00
0.0580114      	1.7864518e+00
0.05804        	1.7866120e+00
0.0580686      	1.7885276e+00
0.0580972      	1.7886878e+00
0.0581257      	1.7906026e+00
0.0581543      	1.7907628e+00
0.0581828      	1.7926769e+00
0.0582113      	1.7928372e+00
0.0582399      	1.7947504e+00
0.0582684      	1.7949107e+00
0.0582969      	1.7968232e+00
0.0583253      	1.7969836e+00
0.0583538      	1.7988953e+00
0.0583823      	1.7990557e+00
0.0584107      	1.8009667e+00
0.0584392      	1.8011271e+00
0.0584676      	1.8030373e+00
0.058496       	1.8031978e+00
0.0585244      	1.8051072e+00
0.0585528      	1.8052677e+00
0.0585812      	1.8071763e+00
0.0586096      	1.8073369e+00
0.058638       	1.8092448e+00
0.0586663      	1.8094054e+00
0.0586947      	1.8113125e+00
0.058723       	1.8114732e+00
0.0587513      	1.8133795e+00
0.0587797      	1.8135403e+00
0.058808       	1.8154458e+00
0.0588363      	1.8156066e+00
0.0588646      	1.8175114e+00
0.0588928      	1.8176722e+00
0.0589211      	1.8195763e+00
0.0589494      	1.8197372e+00
0.0589776      	1.8216405e+00
0.0590058      	1.8218014e+00
0.0590341      	1.8237047e+00
0.0590623      	1.8238686e+00
0.0590905      	1.8257711e+00
0.0591187      	1.8259350e+00
0.0591469      	1.8278368e+00
0.059175       	1.8280007e+00
0.0592032      	1.8299018e+00
0.0592314      	1.8300658e+00
0.0592595      	1.8319661e+00
0.0592876      	1.8321301e+00
0.0593158      	1.8340296e+00
0.0593439      	1.8341938e+00
0.059372       	1.8360925e+00
0.0594001      	1.8362567e+00
0.0594282      	1.8381547e+00
0.0594562      	1.8383190e+00
0.0594843      	1.8402162e+00
0.0595124      	1.8403805e+00
0.0595404      	1.8422770e+00
0.0595684      	1.8424414e+00
0.0595965      	1.8443372e+00
0.0596245      	1.8445016e+00
0.0596525      	1.8463966e+00
0.0596805      	1.8465611e+00
0.0597085      	1.8484553e+00
0.0597364      	1.8486199e+00
0.0597644      	1.8505134e+00
0.0597924      	1.8506780e+00
0.0598203      	1.8525708e+00
0.0598482      	1.8527354e+00
0.0598762      	1.8546275e+00
0.0599041      	1.8547922e+00
0.059932       	1.8566835e+00
0.0599599      	1.8568483e+00
0.0599878      	1.8587388e+00
0.0600156      	1.8589037e+00
0.0600435      	1.8607935e+00
0.0600714      	1.8609584e+00
0.0600992      	1.8628475e+00
0.0601271      	1.8630125e+00
0.0601549      	1.8649008e+00
0.0601827      	1.8650659e+00
0.0602105      	1.8669535e+00
0.0602383      	1.8671186e+00
0.0602661      	1.8690055e+00
0.0602939      	1.8691707e+00
0.0603216      	1.8710568e+00
0.0603494      	1.8712221e+00
0.0603772      	1.8731075e+00
0.0604049      	1.8732728e+00
0.0604326      	1.8751575e+00
0.0604603      	1.8753228e+00
0.0604881      	1.8772068e+00
0.0605158      	1.8773723e+00
0.0605434      	1.8792555e+00
0.0605711      	1.8794210e+00
0.0605988      	1.8813035e+00
0.0606265      	1.8814691e+00
0.0606541      	1.8833508e+00
0.0606818      	1.8835165e+00
0.0607094      	1.8853975e+00
0.060737       	1.8855633e+00
0.0607646      	1.8874436e+00
0.0607922      	1.8876094e+00
0.0608198      	1.8894890e+00
0.0608474      	1.8896549e+00
0.060875       	1.8915337e+00
0.0609026      	1.8916997e+00
0.0609301      	1.8935778e+00
0.0609577      	1.8937439e+00
0.0609852      	1.8956213e+00
0.0610127      	1.8957874e+00