# Region type : patch Rc1_sub1
# Faces        : 104
# Area         : 2.5103088e-06
# Scale factor : 1.0000000e+00
# Time         	sum(phi)
6e-05          	3.4909956e-10
0.000132       	7.6958424e-10
0.0002184      	1.2732173e-09
0.00032208     	1.8798048e-09
0.000446496    	2.6078730e-09
0.000595795    	3.4864880e-09
0.000774954    	4.5419917e-09
0.000989945    	5.8146946e-09
0.00124793     	7.3395473e-09
0.00155752     	9.1683728e-09
0.00192903     	1.1340869e-08
0.00237483     	1.3914289e-08
0.0029098      	1.6922966e-08
0.00355176     	2.0423789e-08
0.00429766     	2.4322089e-08
0.00475367     	2.6702245e-08
0.00497034     	2.7800911e-08
0.00518395     	2.8884981e-08
0.00542139     	3.0066275e-08
0.00568505     	3.1378199e-08
0.00595404     	3.2693952e-08
0.0062143      	3.3974070e-08
0.0064687      	3.5207584e-08
0.00672407     	3.6454112e-08
0.00698341     	3.7704709e-08
0.00724555     	3.8978590e-08
0.00750815     	4.0242375e-08
0.00777023     	4.1518566e-08
0.0080321      	4.2784440e-08
0.0082944      	4.4069909e-08
0.00855734     	4.5351852e-08
0.00882082     	4.6656796e-08
0.00908464     	4.7959922e-08
0.00934862     	4.9288361e-08
0.00961275     	5.0615445e-08
0.00987705     	5.1967966e-08
0.0101415      	5.3319374e-08
0.0104062      	5.4696163e-08
0.0106709      	5.6074397e-08
0.0109358      	5.7480399e-08
0.0112007      	5.8888803e-08
0.0114658      	6.0325825e-08
0.0117309      	6.1765971e-08
0.0119961      	6.3235383e-08
0.0122614      	6.4711900e-08
0.0125268      	6.6218224e-08
0.0127923      	6.7728516e-08
0.0130547      	6.9250587e-08
0.0133104      	7.0734088e-08
0.0135598      	7.2208580e-08
0.0138031      	7.3650737e-08
0.0140406      	7.5083906e-08
0.0142724      	7.6488251e-08
0.0144989      	7.7884584e-08
0.0147204      	7.9251491e-08
0.0149373      	8.0611616e-08
0.0151497      	8.1941818e-08
0.0153579      	8.3265184e-08
0.0155621      	8.4562867e-08
0.0157624      	8.5855491e-08
0.0159592      	8.7123890e-08
0.0161525      	8.8388061e-08
0.0163424      	8.9629392e-08
0.0165292      	9.0867113e-08
0.016713       	9.2083180e-08
0.0168938      	9.3296124e-08
0.0170719      	9.4489876e-08
0.0172473      	9.5682962e-08
0.0174201      	9.6856373e-08
0.0175903      	9.8027517e-08
0.0177582      	9.9179921e-08
0.0179238      	1.0033045e-07
0.0180872      	1.0146135e-07
0.0182484      	1.0258922e-07
0.0184075      	1.0369999e-07
0.0185646      	1.0480956e-07
0.0187197      	1.0590270e-07
0.0188729      	1.0699492e-07
0.0190244      	1.0807187e-07
0.019174       	1.0915081e-07
0.0193219      	1.1021453e-07
0.0194682      	1.1127778e-07
0.0196128      	1.1232640e-07
0.0197558      	1.1337476e-07
0.0198973      	1.1440901e-07
0.0200373      	1.1544238e-07
0.0201759      	1.1645986e-07
0.020313       	1.1747747e-07
0.0204487      	1.1848193e-07
0.0205831      	1.1948667e-07
0.0207162      	1.2047869e-07
0.020848       	1.2147115e-07
0.0209786      	1.2245128e-07
0.0211079      	1.2343200e-07
0.0212361      	1.2440076e-07
0.0213631      	1.2537023e-07
0.021489       	1.2632809e-07
0.0216137      	1.2728676e-07
0.0217374      	1.2823415e-07
0.02186        	1.2918248e-07
0.0219815      	1.3011985e-07
0.0221021      	1.3106075e-07
0.0222216      	1.3199140e-07
0.0223402      	1.3292313e-07
0.0224579      	1.3384446e-07
0.0225745      	1.3476696e-07
0.0226903      	1.3567934e-07
0.0228052      	1.3659296e-07
0.0229192      	1.3749670e-07
0.0230323      	1.3840094e-07
0.0231446      	1.3929350e-07
0.0232561      	1.4018746e-07
0.0233667      	1.4107202e-07
0.0234765      	1.4195803e-07
0.0235856      	1.4283487e-07
0.0236939      	1.4371319e-07
0.0238014      	1.4458254e-07
0.0239082      	1.4545345e-07
0.0240142      	1.4631557e-07
0.0241196      	1.4717929e-07
0.0242242      	1.4803442e-07
0.0243281      	1.4889119e-07
0.0244314      	1.4973956e-07
0.024534       	1.5058960e-07
0.0246359      	1.5143139e-07
0.0247372      	1.5227488e-07
0.0248378      	1.5311030e-07
0.0249378      	1.5394747e-07
0.0250372      	1.5477775e-07
0.025136       	1.5561153e-07
0.0252341      	1.5643751e-07
0.0253317      	1.5726526e-07
0.0254287      	1.5808536e-07
0.0255252      	1.5890726e-07
0.025621       	1.5972167e-07
0.0257163      	1.6053790e-07
0.0258111      	1.6134678e-07
0.0259053      	1.6215751e-07
0.025999       	1.6296098e-07
0.0260921      	1.6376367e-07
0.0261848      	1.6455920e-07
0.0262769      	1.6535664e-07
0.0263686      	1.6614706e-07
0.0264597      	1.6693938e-07
0.0265503      	1.6772480e-07
0.0266405      	1.6851213e-07
0.0267302      	1.6929267e-07
0.0268194      	1.7007513e-07
0.0269082      	1.7085091e-07
0.0269965      	1.7162864e-07
0.0270843      	1.7240230e-07
0.0271717      	1.7317799e-07
0.0272587      	1.7394717e-07
0.0273452      	1.7471830e-07
0.0274313      	1.7548300e-07
0.027517       	1.7624966e-07
0.0276022      	1.7701000e-07
0.0276871      	1.7777229e-07
0.0277715      	1.7852835e-07
0.0278555      	1.7928638e-07
0.0279391      	1.8003826e-07
0.0280224      	1.8079142e-07
0.0281052      	1.8153663e-07
0.0281877      	1.8228384e-07
0.0282698      	1.8302509e-07
0.0283515      	1.8376832e-07
0.0284328      	1.8450566e-07
0.0285138      	1.8524498e-07
0.0285944      	1.8597849e-07
0.0286746      	1.8671398e-07
0.0287545      	1.8744374e-07
0.0288341      	1.8817548e-07
0.0289133      	1.8890157e-07
0.0289921      	1.8962965e-07
0.0290707      	1.9035213e-07
0.0291488      	1.9107662e-07
0.0292267      	1.9179557e-07
0.0293042      	1.9251651e-07
0.0293814      	1.9323199e-07
0.0294583      	1.9394945e-07
0.0295348      	1.9466152e-07
0.0296111      	1.9537557e-07
0.029687       	1.9608429e-07
0.0297626      	1.9679500e-07
0.029838       	1.9750044e-07
0.029913       	1.9820787e-07
0.0299877      	1.9891008e-07
0.0300621      	1.9961636e-07
0.0301362      	2.0031788e-07
0.0302101      	2.0102135e-07
0.0302836      	2.0171972e-07
0.0303569      	2.0242004e-07
0.0304299      	2.0311532e-07
0.0305026      	2.0381255e-07
0.030575       	2.0450478e-07
0.0306472      	2.0519896e-07
0.0307191      	2.0588820e-07
0.0307907      	2.0657940e-07
0.030862       	2.0726569e-07
0.0309331      	2.0795394e-07
0.0310039      	2.0863721e-07
0.0310745      	2.0932013e-07
0.0311448      	2.0999827e-07
0.0312149      	2.1067838e-07
0.0312847      	2.1135373e-07
0.0313542      	2.1203104e-07
0.0314236      	2.1270363e-07
0.0314926      	2.1337817e-07
0.0315614      	2.1404805e-07
0.03163        	2.1471987e-07
0.0316984      	2.1538707e-07
0.0317665      	2.1605621e-07
0.0318343      	2.1672077e-07
0.031902       	2.1738728e-07
0.0319694      	2.1804925e-07
0.0320366      	2.1871316e-07
0.0321035      	2.1937259e-07
0.0321703      	2.2003394e-07
0.0322368      	2.2069084e-07
0.0323031      	2.2134967e-07
0.0323692      	2.2200408e-07
0.032435       	2.2266041e-07
0.0325006      	2.2331237e-07
0.0325661      	2.2396624e-07
0.0326313      	2.2461578e-07
0.0326963      	2.2526723e-07
0.0327611      	2.2591438e-07
0.0328257      	2.2656344e-07
0.0328901      	2.2720824e-07
0.0329543      	2.2785495e-07
0.0330182      	2.2849811e-07
0.033082       	2.2914483e-07
0.0331456      	2.2978735e-07
0.033209       	2.3043175e-07
0.0332722      	2.3107199e-07
0.0333352      	2.3171410e-07
0.033398       	2.3235209e-07
0.0334606      	2.3299194e-07
0.033523       	2.3362769e-07
0.0335853      	2.3426531e-07
0.0336473      	2.3489887e-07
0.0337092      	2.3553429e-07
0.0337709      	2.3616568e-07
0.0338324      	2.3679893e-07
0.0338937      	2.3742818e-07
0.0339548      	2.3805928e-07
0.0340158      	2.3868583e-07
0.0340766      	2.3931253e-07
0.0341372      	2.3993531e-07
0.0341976      	2.4055994e-07
0.0342579      	2.4118068e-07
0.0343179      	2.4180325e-07
0.0343779      	2.4242196e-07
0.0344376      	2.4304251e-07
0.0344972      	2.4365920e-07
0.0345566      	2.4427773e-07
0.0346158      	2.4489244e-07
0.0346749      	2.4550897e-07
0.0347338      	2.4612172e-07
0.0347926      	2.4673629e-07
0.0348512      	2.4734710e-07
0.0349096      	2.4795973e-07
0.0349679      	2.4856864e-07
0.035026       	2.4918036e-07
0.035084       	2.4978963e-07
0.0351418      	2.5040069e-07
0.0351994      	2.5100806e-07
0.0352569      	2.5161721e-07
0.0353143      	2.5222271e-07
0.0353715      	2.5282999e-07
0.0354285      	2.5343364e-07
0.0354854      	2.5403906e-07
0.0355422      	2.5464087e-07
0.0355987      	2.5524446e-07
0.0356552      	2.5584446e-07
0.0357115      	2.5644623e-07
0.0357677      	2.5704445e-07
0.0358237      	2.5764442e-07
0.0358795      	2.5824087e-07
0.0359353      	2.5883907e-07
0.0359908      	2.5943377e-07
0.0360463      	2.6002837e-07
0.0361016      	2.6061913e-07
0.0361568      	2.6121166e-07
0.0362118      	2.6180073e-07
0.0362667      	2.6239155e-07
0.0363215      	2.6297894e-07
0.0363761      	2.6356807e-07
0.0364306      	2.6415378e-07
0.0364849      	2.6474124e-07
0.0365391      	2.6532530e-07
0.0365932      	2.6591110e-07
0.0366472      	2.6649352e-07
0.036701       	2.6707766e-07
0.0367547      	2.6765846e-07
0.0368083      	2.6824098e-07
0.0368618      	2.6882017e-07
0.0369151      	2.6940109e-07
0.0369683      	2.6997870e-07
0.0370213      	2.7055803e-07
0.0370743      	2.7113408e-07
0.0371271      	2.7171184e-07
0.0371798      	2.7228634e-07
0.0372324      	2.7286255e-07
0.0372848      	2.7343551e-07
0.0373371      	2.7401018e-07
0.0373893      	2.7458162e-07
0.0374414      	2.7515475e-07
0.0374934      	2.7572468e-07
0.0375453      	2.7629630e-07
0.037597       	2.7686474e-07
0.0376486      	2.7743486e-07
0.0377001      	2.7800181e-07
0.0377515      	2.7857045e-07
0.0378028      	2.7913594e-07
0.0378539      	2.7970310e-07
0.037905       	2.8026715e-07
0.0379559      	2.8083286e-07
0.0380067      	2.8139576e-07
0.0380574      	2.8196218e-07
0.038108       	2.8252551e-07
0.0381585      	2.8309048e-07
0.0382089      	2.8365237e-07
0.0382592      	2.8421590e-07
0.0383093      	2.8477637e-07
0.0383594      	2.8533848e-07
0.0384093      	2.8589755e-07
0.0384591      	2.8645825e-07
0.0385089      	2.8701593e-07
0.0385585      	2.8757524e-07
0.038608       	2.8813154e-07
0.0386574      	2.8868947e-07
0.0387067      	2.8924440e-07
0.0387559      	2.8980095e-07
0.038805       	2.9035453e-07
0.038854       	2.9090973e-07
0.0389029      	2.9146198e-07
0.0389517      	2.9201583e-07
0.0390004      	2.9256673e-07
0.039049       	2.9311715e-07
0.0390975      	2.9366465e-07
0.0391459      	2.9421377e-07
0.0391941      	2.9475998e-07
0.0392423      	2.9530780e-07
0.0392904      	2.9585273e-07
0.0393384      	2.9639926e-07
0.0393863      	2.9694290e-07
0.0394341      	2.9748814e-07
0.0394819      	2.9803052e-07
0.0395295      	2.9857449e-07
0.039577       	2.9911562e-07
0.0396244      	2.9965833e-07
0.0396717      	3.0019820e-07
0.039719       	3.0073966e-07
0.0397661      	3.0127830e-07
0.0398132      	3.0181852e-07
0.0398601      	3.0235593e-07
0.039907       	3.0289492e-07
0.0399538      	3.0343113e-07
0.0400005      	3.0396905e-07
0.0400471      	3.0451855e-07
0.0400936      	3.0506955e-07
0.04014        	3.0561768e-07
0.0401863      	3.0616733e-07
0.0402326      	3.0671414e-07
0.0402787      	3.0726249e-07
0.0403248      	3.0780802e-07
0.0403707      	3.0835508e-07
0.0404166      	3.0889934e-07
0.0404624      	3.0944514e-07
0.0405081      	3.0998815e-07
0.0405537      	3.1053268e-07
0.0405993      	3.1107444e-07
0.0406447      	3.1161772e-07
0.0406901      	3.1215824e-07
0.0407354      	3.1270028e-07
0.0407806      	3.1323956e-07
0.0408257      	3.1378035e-07
0.0408707      	3.1431840e-07
0.0409157      	3.1485795e-07
0.0409605      	3.1539478e-07
0.0410053      	3.1593310e-07
0.04105        	3.1646871e-07
0.0410946      	3.1700581e-07
0.0411391      	3.1754020e-07
0.0411836      	3.1807607e-07
0.041228       	3.1860925e-07
0.0412723      	3.1914390e-07
0.0413165      	3.1967587e-07
0.0413606      	3.2020930e-07
0.0414047      	3.2074006e-07
0.0414486      	3.2127228e-07
0.0414925      	3.2180184e-07
0.0415363      	3.2233285e-07
0.0415801      	3.2286121e-07
0.0416237      	3.2339102e-07
0.0416673      	3.2391819e-07
0.0417108      	3.2444680e-07
0.0417543      	3.2497278e-07
0.0417976      	3.2550020e-07
0.0418409      	3.2602501e-07
0.0418841      	3.2655125e-07
0.0419272      	3.2707488e-07
0.0419703      	3.2759995e-07
0.0420133      	3.2812180e-07
0.0420562      	3.2864370e-07
0.042099       	3.2916302e-07
0.0421418      	3.2968377e-07
0.0421845      	3.3020196e-07
0.0422271      	3.3072158e-07
0.0422696      	3.3123864e-07
0.0423121      	3.3175712e-07
0.0423545      	3.3227305e-07
0.0423968      	3.3279040e-07
0.0424391      	3.3330521e-07
0.0424812      	3.3382142e-07
0.0425233      	3.3433511e-07
0.0425654      	3.3485021e-07
0.0426074      	3.3536280e-07
0.0426493      	3.3587678e-07
0.0426911      	3.3638827e-07
0.0427329      	3.3690116e-07
0.0427746      	3.3741155e-07
0.0428162      	3.3792334e-07
0.0428577      	3.3843265e-07
0.0428992      	3.3894335e-07
0.0429407      	3.3945158e-07
0.042982       	3.3996121e-07
0.0430233      	3.4046949e-07
0.0430645      	3.4098001e-07
0.0431057      	3.4148808e-07
0.0431468      	3.4199753e-07
0.0431878      	3.4250453e-07
0.0432287      	3.4301291e-07
0.0432696      	3.4351885e-07
0.0433105      	3.4402617e-07
0.0433512      	3.4453106e-07
0.0433919      	3.4503732e-07
0.0434325      	3.4554117e-07
0.0434731      	3.4604638e-07
0.0435136      	3.4654919e-07
0.043554       	3.4705337e-07
0.0435944      	3.4755515e-07
0.0436347      	3.4805829e-07
0.043675       	3.4855905e-07
0.0437152      	3.4906117e-07
0.0437553      	3.4956092e-07
0.0437953      	3.5006202e-07
0.0438353      	3.5056077e-07
0.0438753      	3.5106087e-07
0.0439152      	3.5155863e-07
0.043955       	3.5205773e-07
0.0439947      	3.5255450e-07
0.0440344      	3.5305262e-07
0.044074       	3.5354841e-07
0.0441136      	3.5404554e-07
0.0441531      	3.5454036e-07
0.0441926      	3.5503651e-07
0.044232       	3.5553036e-07
0.0442713      	3.5602554e-07
0.0443106      	3.5651843e-07
0.0443498      	3.5701265e-07
0.0443889      	3.5750458e-07
0.044428       	3.5799784e-07
0.0444671      	3.5848882e-07
0.044506       	3.5898112e-07
0.044545       	3.5947116e-07
0.0445838      	3.5996253e-07
0.0446226      	3.6045163e-07
0.0446614      	3.6094206e-07
0.0447001      	3.6143024e-07
0.0447387      	3.6191974e-07
0.0447773      	3.6240700e-07
0.0448158      	3.6289557e-07
0.0448543      	3.6338191e-07
0.0448927      	3.6386957e-07
0.044931       	3.6435500e-07
0.0449693      	3.6484175e-07
0.0450076      	3.6532629e-07
0.0450458      	3.6581214e-07
0.0450839      	3.6629579e-07
0.045122       	3.6678075e-07
0.04516        	3.6726351e-07
0.0451979      	3.6774758e-07
0.0452359      	3.6822946e-07
0.0452737      	3.6871265e-07
0.0453115      	3.6919366e-07
0.0453493      	3.6967595e-07
0.045387       	3.7015607e-07
0.0454246      	3.7063748e-07
0.0454622      	3.7111673e-07
0.0454997      	3.7159727e-07
0.0455372      	3.7207566e-07
0.0455747      	3.7255534e-07
0.045612       	3.7303288e-07
0.0456494      	3.7351170e-07
0.0456867      	3.7398840e-07
0.0457239      	3.7446637e-07
0.0457611      	3.7494221e-07
0.0457982      	3.7541933e-07
0.0458352      	3.7589433e-07
0.0458723      	3.7637062e-07
0.0459092      	3.7684480e-07
0.0459462      	3.7732026e-07
0.045983       	3.7779362e-07
0.0460198      	3.7826724e-07
0.0460566      	3.7873792e-07
0.0460933      	3.7920987e-07
0.04613        	3.7967974e-07
0.0461666      	3.8015088e-07
0.0462032      	3.8061995e-07
0.0462397      	3.8109030e-07
0.0462762      	3.8155859e-07
0.0463126      	3.8202815e-07
0.0463489      	3.8249565e-07
0.0463853      	3.8296443e-07
0.0464215      	3.8343115e-07
0.0464578      	3.8389915e-07
0.046494       	3.8436510e-07
0.0465301      	3.8483231e-07
0.0465662      	3.8529749e-07
0.0466022      	3.8576393e-07
0.0466382      	3.8622834e-07
0.0466741      	3.8669400e-07
0.04671        	3.8715765e-07
0.0467459      	3.8762256e-07
0.0467817      	3.8808546e-07
0.0468174      	3.8854961e-07
0.0468531      	3.8901177e-07
0.0468888      	3.8947518e-07
0.0469244      	3.8993660e-07
0.04696        	3.9039927e-07
0.0469955      	3.9085996e-07
0.047031       	3.9132351e-07
0.0470664      	3.9178533e-07
0.0471018      	3.9224838e-07
0.0471371      	3.9270946e-07
0.0471724      	3.9317177e-07
0.0472076      	3.9363212e-07
0.0472428      	3.9409370e-07
0.047278       	3.9455333e-07
0.0473131      	3.9501419e-07
0.0473482      	3.9547309e-07
0.0473832      	3.9593323e-07
0.0474182      	3.9639143e-07
0.0474531      	3.9685086e-07
0.047488       	3.9730835e-07
0.0475229      	3.9776705e-07
0.0475577      	3.9822383e-07
0.0475924      	3.9868183e-07
0.0476271      	3.9913791e-07
0.0476618      	3.9959521e-07
0.0476964      	4.0005060e-07
0.047731       	4.0050720e-07
0.0477656      	4.0096189e-07
0.0478001      	4.0141780e-07
0.0478345      	4.0187181e-07
0.0478689      	4.0232703e-07
0.0479033      	4.0278036e-07
0.0479377      	4.0323489e-07
0.0479719      	4.0368754e-07
0.0480062      	4.0414140e-07
0.0480404      	4.0459339e-07
0.0480746      	4.0504658e-07
0.0481087      	4.0549790e-07
0.0481428      	4.0595042e-07
0.0481768      	4.0640109e-07
0.0482108      	4.0685295e-07
0.0482448      	4.0730296e-07
0.0482787      	4.0775416e-07
0.0483125      	4.0820351e-07
0.0483464      	4.0865406e-07
0.0483802      	4.0910275e-07
0.0484139      	4.0955263e-07
0.0484476      	4.1000067e-07
0.0484813      	4.1044990e-07
0.0485149      	4.1089730e-07
0.0485485      	4.1134588e-07
0.0485821      	4.1179263e-07
0.0486156      	4.1224056e-07
0.0486491      	4.1268667e-07
0.0486825      	4.1313396e-07
0.0487159      	4.1357943e-07
0.0487493      	4.1402607e-07
0.0487826      	4.1447090e-07
0.0488159      	4.1491691e-07
0.0488491      	4.1536110e-07
0.0488823      	4.1580647e-07
0.0489155      	4.1625005e-07
0.0489486      	4.1669479e-07
0.0489817      	4.1713773e-07
0.0490147      	4.1758184e-07
0.0490477      	4.1802417e-07
0.0490807      	4.1846765e-07
0.0491136      	4.1890935e-07
0.0491465      	4.1935222e-07
0.0491794      	4.1979330e-07
0.0492122      	4.2023554e-07
0.0492449      	4.2067601e-07
0.0492777      	4.2111764e-07
0.0493104      	4.2155749e-07
0.0493431      	4.2199850e-07
0.0493757      	4.2243775e-07
0.0494083      	4.2287815e-07
0.0494408      	4.2331679e-07
0.0494734      	4.2375658e-07
0.0495058      	4.2419462e-07
0.0495383      	4.2463381e-07
0.0495707      	4.2507124e-07
0.0496031      	4.2550982e-07
0.0496354      	4.2594665e-07
0.0496677      	4.2638462e-07
0.0497         	4.2682085e-07
0.0497322      	4.2725822e-07
0.0497644      	4.2769385e-07
0.0497965      	4.2813063e-07
0.0498287      	4.2856568e-07
0.0498607      	4.2900186e-07
0.0498928      	4.2943634e-07
0.0499248      	4.2987195e-07
0.0499568      	4.3030584e-07
0.0499887      	4.3074087e-07
0.0500206      	4.3075990e-07
0.0500525      	4.3055518e-07
0.0500844      	4.3035186e-07
0.0501162      	4.3015191e-07
0.0501481      	4.2995268e-07
0.0501799      	4.2975620e-07
0.0502117      	4.2955996e-07
0.0502435      	4.2936611e-07
0.0502753      	4.2917225e-07
0.0503071      	4.2898060e-07
0.0503388      	4.2878881e-07
0.0503706      	4.2859915e-07
0.0504023      	4.2840931e-07
0.050434       	4.2822157e-07
0.0504657      	4.2803365e-07
0.0504974      	4.2784784e-07
0.0505291      	4.2766187e-07
0.0505607      	4.2747803e-07
0.0505924      	4.2729406e-07
0.050624       	4.2711228e-07
0.0506556      	4.2693041e-07
0.0506872      	4.2675076e-07
0.0507188      	4.2657109e-07
0.0507503      	4.2639369e-07
0.0507819      	4.2621633e-07
0.0508134      	4.2604128e-07
0.050845       	4.2586632e-07
0.0508765      	4.2569374e-07
0.050908       	4.2552131e-07
0.0509395      	4.2535131e-07
0.0509709      	4.2518152e-07
0.0510024      	4.2501434e-07
0.0510338      	4.2484905e-07
0.0510652      	4.2468629e-07
0.0510967      	4.2452384e-07
0.0511281      	4.2436398e-07
0.0511594      	4.2420448e-07
0.0511908      	4.2404763e-07
0.0512222      	4.2389119e-07
0.0512535      	4.2373744e-07
0.0512848      	4.2358416e-07
0.0513162      	4.2343361e-07
0.0513475      	4.2328358e-07
0.0513788      	4.2313633e-07
0.05141        	4.2298965e-07
0.0514413      	4.2284578e-07
0.0514725      	4.2270252e-07
0.0515038      	4.2256213e-07
0.051535       	4.2242238e-07
0.0515662      	4.2228554e-07
0.0515974      	4.2214938e-07
0.0516286      	4.2201616e-07
0.0516597      	4.2188366e-07
0.0516909      	4.2175413e-07
0.051722       	4.2162536e-07
0.0517531      	4.2149959e-07
0.0517842      	4.2137461e-07
0.0518153      	4.2125266e-07
0.0518464      	4.2113154e-07
0.0518775      	4.2101347e-07
0.0519085      	4.2089625e-07
0.0519396      	4.2078209e-07
0.0519706      	4.2066881e-07
0.0520016      	4.2055863e-07
0.0520326      	4.2044935e-07
0.0520636      	4.2034319e-07
0.0520946      	4.2023794e-07
0.0521255      	4.2013583e-07
0.0521565      	4.2003465e-07
0.0521874      	4.1993662e-07
0.0522183      	4.1983954e-07
0.0522492      	4.1974562e-07
0.0522801      	4.1965267e-07
0.052311       	4.1956288e-07
0.0523419      	4.1947408e-07
0.0523727      	4.1938846e-07
0.0524036      	4.1930382e-07
0.0524344      	4.1922237e-07
0.0524652      	4.1914192e-07
0.052496       	4.1906466e-07
0.0525268      	4.1898841e-07
0.0525576      	4.1891535e-07
0.0525883      	4.1884331e-07
0.0526191      	4.1877445e-07
0.0526498      	4.1870662e-07
0.0526805      	4.1864198e-07
0.0527112      	4.1857835e-07
0.0527419      	4.1851792e-07
0.0527726      	4.1845851e-07
0.0528033      	4.1840229e-07
0.0528339      	4.1834709e-07
0.0528646      	4.1829508e-07
0.0528952      	4.1824408e-07
0.0529258      	4.1819626e-07
0.0529564      	4.1814946e-07
0.052987       	4.1810583e-07
0.0530176      	4.1806321e-07
0.0530482      	4.1802375e-07
0.0530787      	4.1798528e-07
0.0531092      	4.1794997e-07
0.0531398      	4.1791565e-07
0.0531703      	4.1788447e-07
0.0532008      	4.1785428e-07
0.0532313      	4.1782721e-07
0.0532617      	4.1780111e-07
0.0532922      	4.1777814e-07
0.0533227      	4.1775612e-07
0.0533531      	4.1773722e-07
0.0533835      	4.1771927e-07
0.0534139      	4.1770440e-07
0.0534443      	4.1769047e-07
0.0534747      	4.1767960e-07
0.0535051      	4.1766965e-07
0.0535354      	4.1766275e-07
0.0535658      	4.1765675e-07
0.0535961      	4.1765380e-07
0.0536264      	4.1765174e-07
0.0536567      	4.1765270e-07
0.053687       	4.1765454e-07
0.0537173      	4.1765938e-07
0.0537476      	4.1766507e-07
0.0537779      	4.1767374e-07
0.0538081      	4.1768325e-07
0.0538383      	4.1769571e-07
0.0538686      	4.1770900e-07
0.0538988      	4.1772522e-07
0.053929       	4.1774224e-07
0.0539591      	4.1776217e-07
0.0539893      	4.1778289e-07
0.0540195      	4.1780541e-07
0.0540496      	4.1782811e-07
0.0540797      	4.1785367e-07
0.0541099      	4.1787999e-07
0.05414        	4.1790915e-07
0.0541701      	4.1793903e-07
0.0542002      	4.1797173e-07
0.0542302      	4.1800514e-07
0.0542603      	4.1804134e-07
0.0542903      	4.1807821e-07
0.0543204      	4.1811786e-07
0.0543504      	4.1815816e-07
0.0543804      	4.1820121e-07
0.0544104      	4.1824488e-07
0.0544404      	4.1829126e-07
0.0544704      	4.1833825e-07
0.0545003      	4.1838794e-07
0.0545303      	4.1843820e-07
0.0545602      	4.1849113e-07
0.0545901      	4.1854463e-07
0.0546201      	4.1860075e-07
0.05465        	4.1865741e-07
0.0546798      	4.1871668e-07
0.0547097      	4.1877646e-07
0.0547396      	4.1883882e-07
0.0547694      	4.1890167e-07
0.0547993      	4.1896708e-07
0.0548291      	4.1903294e-07
0.0548589      	4.1910134e-07
0.0548887      	4.1917017e-07
0.0549185      	4.1924151e-07
0.0549483      	4.1931326e-07
0.0549781      	4.1938747e-07
0.0550078      	4.1946251e-07
0.0550376      	4.1954121e-07
0.0550673      	4.1962026e-07
0.055097       	4.1970174e-07
0.0551267      	4.1978354e-07
0.0551564      	4.1986770e-07
0.0551861      	4.1995217e-07
0.0552158      	4.2003899e-07
0.0552455      	4.2012609e-07
0.0552751      	4.2021552e-07
0.0553048      	4.2030521e-07
0.0553344      	4.2039721e-07
0.055364       	4.2048944e-07
0.0553936      	4.2058393e-07
0.0554232      	4.2067864e-07
0.0554528      	4.2077559e-07
0.0554823      	4.2087271e-07
0.0555119      	4.2097205e-07
0.0555414      	4.2107154e-07
0.055571       	4.2117322e-07
0.0556005      	4.2127503e-07
0.05563        	4.2137900e-07
0.0556595      	4.2148307e-07
0.055689       	4.2158928e-07
0.0557185      	4.2169557e-07
0.0557479      	4.2180396e-07
0.0557774      	4.2191240e-07
0.0558068      	4.2202293e-07
0.0558363      	4.2213348e-07
0.0558657      	4.2224609e-07
0.0558951      	4.2235870e-07
0.0559245      	4.2247333e-07
0.0559539      	4.2258795e-07
0.0559832      	4.2270457e-07
0.0560126      	4.2282114e-07
0.0560419      	4.2293970e-07
0.0560713      	4.2305818e-07
0.0561006      	4.2317862e-07
0.0561299      	4.2329897e-07
0.0561592      	4.2342122e-07
0.0561885      	4.2354335e-07
0.0562178      	4.2366738e-07
0.0562471      	4.2379128e-07
0.0562763      	4.2391704e-07
0.0563056      	4.2404264e-07
0.0563348      	4.2417009e-07
0.056364       	4.2429735e-07
0.0563932      	4.2442642e-07
0.0564224      	4.2455529e-07
0.0564516      	4.2468595e-07
0.0564808      	4.2481638e-07
0.05651        	4.2494858e-07
0.0565391      	4.2508052e-07
0.0565683      	4.2521420e-07
0.0565974      	4.2534760e-07
0.0566265      	4.2548273e-07
0.0566556      	4.2561756e-07
0.0566847      	4.2575408e-07
0.0567138      	4.2589029e-07
0.0567429      	4.2602817e-07
0.056772       	4.2616571e-07
0.056801       	4.2630490e-07
0.0568301      	4.2644373e-07
0.0568591      	4.2658419e-07
0.0568881      	4.2672427e-07
0.0569171      	4.2686595e-07
0.0569461      	4.2700724e-07
0.0569751      	4.2715012e-07
0.0570041      	4.2729257e-07
0.0570331      	4.2743657e-07
0.057062       	4.2758012e-07
0.057091       	4.2772522e-07
0.0571199      	4.2786986e-07
0.0571488      	4.2801602e-07
0.0571777      	4.2816170e-07
0.0572066      	4.2830888e-07
0.0572355      	4.2845557e-07
0.0572644      	4.2860372e-07
0.0572933      	4.2875137e-07
0.0573221      	4.2890047e-07
0.057351       	4.2904904e-07
0.0573798      	4.2919905e-07
0.0574086      	4.2934851e-07
0.0574374      	4.2949937e-07
0.0574662      	4.2964966e-07
0.057495       	4.2980134e-07
0.0575238      	4.2995244e-07
0.0575526      	4.3010491e-07
0.0575813      	4.3025679e-07
0.0576101      	4.3041002e-07
0.0576388      	4.3056263e-07
0.0576676      	4.3071658e-07
0.0576963      	4.3086990e-07
0.057725       	4.3102454e-07
0.0577537      	4.3117853e-07
0.0577824      	4.3133382e-07
0.057811       	4.3148845e-07
0.0578397      	4.3164437e-07
0.0578683      	4.3179961e-07
0.057897       	4.3195611e-07
0.0579256      	4.3211193e-07
0.0579542      	4.3226900e-07
0.0579828      	4.3242535e-07
0.0580114      	4.3258231e-07
0.05804        	4.3273760e-07
0.0580686      	4.3289412e-07
0.0580972      	4.3304991e-07
0.0581257      	4.3320691e-07
0.0581543      	4.3336317e-07
0.0581828      	4.3352062e-07
0.0582113      	4.3367731e-07
0.0582399      	4.3383518e-07
0.0582684      	4.3399228e-07
0.0582969      	4.3415053e-07
0.0583253      	4.3430801e-07
0.0583538      	4.3446663e-07
0.0583823      	4.3462445e-07
0.0584107      	4.3478341e-07
0.0584392      	4.3494156e-07
0.0584676      	4.3510082e-07
0.058496       	4.3525927e-07
0.0585244      	4.3541883e-07
0.0585528      	4.3557755e-07
0.0585812      	4.3573737e-07
0.0586096      	4.3589634e-07
0.058638       	4.3605638e-07
0.0586663      	4.3621557e-07
0.0586947      	4.3637582e-07
0.058723       	4.3653521e-07
0.0587513      	4.3669566e-07
0.0587797      	4.3685524e-07
0.058808       	4.3701585e-07
0.0588363      	4.3717559e-07
0.0588646      	4.3733635e-07
0.0588928      	4.3749623e-07
0.0589211      	4.3765713e-07
0.0589494      	4.3781713e-07
0.0589776      	4.3797814e-07
0.0590058      	4.3813857e-07
0.0590341      	4.3830124e-07
0.0590623      	4.3846299e-07
0.0590905      	4.3862571e-07
0.0591187      	4.3878750e-07
0.0591469      	4.3895026e-07
0.059175       	4.3911209e-07
0.0592032      	4.3927488e-07
0.0592314      	4.3943671e-07
0.0592595      	4.3959950e-07
0.0592876      	4.3976134e-07
0.0593158      	4.3992412e-07
0.0593439      	4.4008594e-07
0.059372       	4.4024869e-07
0.0594001      	4.4041048e-07
0.0594282      	4.4057319e-07
0.0594562      	4.4073493e-07
0.0594843      	4.4089758e-07
0.0595124      	4.4105925e-07
0.0595404      	4.4122183e-07
0.0595684      	4.4138343e-07
0.0595965      	4.4154592e-07
0.0596245      	4.4170742e-07
0.0596525      	4.4186981e-07
0.0596805      	4.4203122e-07
0.0597085      	4.4219350e-07
0.0597364      	4.4235478e-07
0.0597644      	4.4251693e-07
0.0597924      	4.4267808e-07
0.0598203      	4.4284009e-07
0.0598482      	4.4300110e-07
0.0598762      	4.4316296e-07
0.0599041      	4.4332382e-07
0.059932       	4.4348552e-07
0.0599599      	4.4364621e-07
0.0599878      	4.4380774e-07
0.0600156      	4.4396824e-07
0.0600435      	4.4412959e-07
0.0600714      	4.4428991e-07
0.0600992      	4.4445106e-07
0.0601271      	4.4461119e-07
0.0601549      	4.4477214e-07
0.0601827      	4.4493205e-07
0.0602105      	4.4509278e-07
0.0602383      	4.4525248e-07
0.0602661      	4.4541299e-07
0.0602939      	4.4557246e-07
0.0603216      	4.4573273e-07
0.0603494      	4.4589196e-07
0.0603772      	4.4605199e-07
0.0604049      	4.4621097e-07
0.0604326      	4.4637075e-07
0.0604603      	4.4652948e-07
0.0604881      	4.4668901e-07
0.0605158      	4.4684748e-07
0.0605434      	4.4700675e-07
0.0605711      	4.4716496e-07
0.0605988      	4.4732395e-07
0.0606265      	4.4748186e-07
0.0606541      	4.4764055e-07
0.0606818      	4.4779817e-07
0.0607094      	4.4795658e-07
0.060737       	4.4811392e-07
0.0607646      	4.4827203e-07
0.0607922      	4.4842908e-07
0.0608198      	4.4858689e-07
0.0608474      	4.4874364e-07
0.060875       	4.4890116e-07
0.0609026      	4.4905761e-07
0.0609301      	4.4921482e-07
0.0609577      	4.4937096e-07
0.0609852      	4.4952785e-07
0.0610127      	4.4968368e-07