# Region type : patch Rc1_sub1
# Faces        : 104
# Area         : 2.5103088e-06
# Scale factor : 1.0000000e+00
# Time         	sum(phi)
6e-05          	3.4909956e-10
0.000132       	7.6958268e-10
0.0002184      	1.2732099e-09
0.00032208     	1.8797803e-09
0.000446496    	2.6078075e-09
0.000595795    	3.4863323e-09
0.000774954    	4.5416497e-09
0.000989945    	5.8139850e-09
0.00124793     	7.3381284e-09
0.00155752     	9.1656171e-09
0.00192903     	1.1335639e-08
0.00237483     	1.3904550e-08
0.0029098      	1.6905107e-08
0.00355176     	2.0391465e-08
0.00429765     	2.4267215e-08
0.00475382     	2.6632127e-08
0.00497048     	2.7722117e-08
0.00518408     	2.8796860e-08
0.00542151     	2.9966613e-08
0.00568516     	3.1264437e-08
0.00595414     	3.2564234e-08
0.0062144      	3.3827546e-08
0.00646879     	3.5043136e-08
0.00672414     	3.6270293e-08
0.00698347     	3.7499622e-08
0.0072456      	3.8750526e-08
0.0075082      	3.9989607e-08
0.00777027     	4.1239576e-08
0.00803213     	4.2477467e-08
0.00829441     	4.3733317e-08
0.00855734     	4.4983788e-08
0.00882083     	4.6255567e-08
0.00908463     	4.7523594e-08
0.00934861     	4.8815188e-08
0.00961272     	5.0103447e-08
0.00987701     	5.1415370e-08
0.0101415      	5.2724189e-08
0.0104061      	5.4056541e-08
0.0106708      	5.5388230e-08
0.0109356      	5.6745775e-08
0.0112005      	5.8103598e-08
0.0114655      	5.9488122e-08
0.0117307      	6.0873590e-08
0.0119958      	6.2286317e-08
0.0122611      	6.3703910e-08
0.0125265      	6.5149250e-08
0.0127919      	6.6596240e-08
0.0130543      	6.8053583e-08
0.0133099      	6.9471876e-08
0.0135591      	7.0880949e-08
0.0138025      	7.2257576e-08
0.01404        	7.3625219e-08
0.0142718      	7.4963725e-08
0.0144983      	7.6294132e-08
0.0147199      	7.7594803e-08
0.0149367      	7.8888586e-08
0.0151492      	8.0152183e-08
0.0153574      	8.1408948e-08
0.0155616      	8.2639801e-08
0.0157619      	8.3865669e-08
0.0159587      	8.5067074e-08
0.016152       	8.6264146e-08
0.0163419      	8.7438076e-08
0.0165288      	8.8608277e-08
0.0167125      	8.9756529e-08
0.0168934      	9.0901576e-08
0.0170714      	9.2027157e-08
0.0172468      	9.3152026e-08
0.0174196      	9.4257006e-08
0.0175899      	9.5359643e-08
0.0177578      	9.6443297e-08
0.0179234      	9.7525011e-08
0.0180867      	9.8586873e-08
0.0182479      	9.9645632e-08
0.0184071      	1.0068703e-07
0.0185642      	1.0172716e-07
0.0187193      	1.0275061e-07
0.0188726      	1.0377306e-07
0.019024       	1.0478001e-07
0.0191736      	1.0578887e-07
0.0193216      	1.0678231e-07
0.0194678      	1.0777521e-07
0.0196124      	1.0875325e-07
0.0197555      	1.0973099e-07
0.019897       	1.1069442e-07
0.020037       	1.1165694e-07
0.0201755      	1.1260337e-07
0.0203126      	1.1354990e-07
0.0204484      	1.1448308e-07
0.0205828      	1.1541649e-07
0.0207159      	1.1633699e-07
0.0208477      	1.1725790e-07
0.0209783      	1.1816631e-07
0.0211076      	1.1907529e-07
0.0212358      	1.1997213e-07
0.0213628      	1.2086967e-07
0.0214886      	1.2175542e-07
0.0216134      	1.2264197e-07
0.021737       	1.2351709e-07
0.0218597      	1.2439312e-07
0.0219812      	1.2525803e-07
0.0221018      	1.2612644e-07
0.0222213      	1.2698447e-07
0.0223399      	1.2784357e-07
0.0224576      	1.2869212e-07
0.0225742      	1.2954181e-07
0.02269        	1.3038123e-07
0.0228049      	1.3122190e-07
0.0229189      	1.3205254e-07
0.023032       	1.3288370e-07
0.0231443      	1.3370302e-07
0.0232558      	1.3452374e-07
0.0233664      	1.3533491e-07
0.0234763      	1.3614753e-07
0.0235853      	1.3695082e-07
0.0236936      	1.3775561e-07
0.0238011      	1.3855128e-07
0.0239079      	1.3934850e-07
0.024014       	1.4013681e-07
0.0241193      	1.4092673e-07
0.0242239      	1.4170793e-07
0.0243279      	1.4249074e-07
0.0244311      	1.4326501e-07
0.0245337      	1.4404095e-07
0.0246356      	1.4480853e-07
0.0247369      	1.4557783e-07
0.0248375      	1.4633893e-07
0.0249375      	1.4710177e-07
0.0250369      	1.4785759e-07
0.0251357      	1.4861689e-07
0.0252339      	1.4936828e-07
0.0253315      	1.5012145e-07
0.0254285      	1.5086687e-07
0.0255249      	1.5161408e-07
0.0256208      	1.5235368e-07
0.0257161      	1.5309510e-07
0.0258108      	1.5382904e-07
0.0259051      	1.5456484e-07
0.0259987      	1.5529331e-07
0.0260919      	1.5602101e-07
0.0261846      	1.5674145e-07
0.0262767      	1.5746381e-07
0.0263683      	1.5817904e-07
0.0264595      	1.5889618e-07
0.0265501      	1.5960631e-07
0.0266403      	1.6031836e-07
0.02673        	1.6102351e-07
0.0268192      	1.6173059e-07
0.0269079      	1.6243089e-07
0.0269962      	1.6313314e-07
0.0270841      	1.6383122e-07
0.0271715      	1.6453137e-07
0.0272584      	1.6522488e-07
0.027345       	1.6592036e-07
0.0274311      	1.6660931e-07
0.0275167      	1.6730023e-07
0.027602       	1.6798471e-07
0.0276868      	1.6867117e-07
0.0277713      	1.6935129e-07
0.0278553      	1.7003339e-07
0.0279389      	1.7070924e-07
0.0280222      	1.7138640e-07
0.028105       	1.7205551e-07
0.0281875      	1.7272663e-07
0.0282696      	1.7339168e-07
0.0283513      	1.7405873e-07
0.0284326      	1.7471978e-07
0.0285136      	1.7538283e-07
0.0285942      	1.7603996e-07
0.0286744      	1.7669908e-07
0.0287543      	1.7735237e-07
0.0288339      	1.7800765e-07
0.0289131      	1.7865717e-07
0.0289919      	1.7930871e-07
0.0290705      	1.7995455e-07
0.0291486      	1.8060240e-07
0.0292265      	1.8124462e-07
0.029304       	1.8188885e-07
0.0293812      	1.8252752e-07
0.0294581      	1.8316819e-07
0.0295346      	1.8380336e-07
0.0296109      	1.8444053e-07
0.0296868      	1.8507227e-07
0.0297624      	1.8570602e-07
0.0298378      	1.8633440e-07
0.0299128      	1.8696478e-07
0.0299875      	1.8758986e-07
0.0300619      	1.8821901e-07
0.0301361      	1.8884331e-07
0.0302099      	1.8946960e-07
0.0302834      	1.9009068e-07
0.0303567      	1.9071374e-07
0.0304297      	1.9133165e-07
0.0305024      	1.9195154e-07
0.0305748      	1.9256633e-07
0.030647       	1.9318310e-07
0.0307189      	1.9379483e-07
0.0307905      	1.9440853e-07
0.0308618      	1.9501725e-07
0.0309329      	1.9562795e-07
0.0310038      	1.9623357e-07
0.0310743      	1.9683888e-07
0.0311446      	1.9743930e-07
0.0312147      	1.9804172e-07
0.0312845      	1.9863930e-07
0.0313541      	1.9923885e-07
0.0314234      	1.9983360e-07
0.0314924      	2.0043032e-07
0.0315613      	2.0102230e-07
0.0316298      	2.0161623e-07
0.0316982      	2.0220547e-07
0.0317663      	2.0279666e-07
0.0318342      	2.0338320e-07
0.0319018      	2.0397169e-07
0.0319692      	2.0455558e-07
0.0320364      	2.0514142e-07
0.0321034      	2.0572270e-07
0.0321701      	2.0630592e-07
0.0322366      	2.0688462e-07
0.0323029      	2.0746526e-07
0.032369       	2.0804141e-07
0.0324348      	2.0861950e-07
0.0325005      	2.0919314e-07
0.0325659      	2.0976871e-07
0.0326311      	2.1033987e-07
0.0326961      	2.1091296e-07
0.0327609      	2.1148168e-07
0.0328255      	2.1205232e-07
0.0328899      	2.1261863e-07
0.0329541      	2.1318687e-07
0.0330181      	2.1375147e-07
0.0330819      	2.1431967e-07
0.0331454      	2.1488359e-07
0.0332088      	2.1544941e-07
0.033272       	2.1601099e-07
0.033335       	2.1657446e-07
0.0333978      	2.1713373e-07
0.0334604      	2.1769489e-07
0.0335229      	2.1825188e-07
0.0335851      	2.1881075e-07
0.0336472      	2.1936549e-07
0.033709       	2.1992211e-07
0.0337707      	2.2047462e-07
0.0338322      	2.2102901e-07
0.0338935      	2.2157934e-07
0.0339547      	2.2213154e-07
0.0340156      	2.2267913e-07
0.0340764      	2.2322687e-07
0.034137       	2.2377063e-07
0.0341974      	2.2431626e-07
0.0342577      	2.2485792e-07
0.0343178      	2.2540144e-07
0.0343777      	2.2594102e-07
0.0344375      	2.2648245e-07
0.034497       	2.2701997e-07
0.0345564      	2.2755934e-07
0.0346157      	2.2809482e-07
0.0346748      	2.2863215e-07
0.0347337      	2.2916562e-07
0.0347925      	2.2970094e-07
0.034851       	2.3023244e-07
0.0349095      	2.3076578e-07
0.0349678      	2.3129532e-07
0.0350259      	2.3182771e-07
0.0350838      	2.3235758e-07
0.0351416      	2.3288927e-07
0.0351993      	2.3341719e-07
0.0352568      	2.3394694e-07
0.0353141      	2.3447295e-07
0.0353713      	2.3500078e-07
0.0354284      	2.3552490e-07
0.0354853      	2.3605082e-07
0.035542       	2.3657308e-07
0.0355986      	2.3709713e-07
0.035655       	2.3761753e-07
0.0357113      	2.3813972e-07
0.0357675      	2.3865829e-07
0.0358235      	2.3917865e-07
0.0358794      	2.3969542e-07
0.0359351      	2.4021397e-07
0.0359907      	2.4072895e-07
0.0360462      	2.4124386e-07
0.0361015      	2.4175486e-07
0.0361566      	2.4226765e-07
0.0362117      	2.4277691e-07
0.0362666      	2.4328795e-07
0.0363213      	2.4379549e-07
0.0363759      	2.4430480e-07
0.0364304      	2.4481063e-07
0.0364848      	2.4531822e-07
0.036539       	2.4582235e-07
0.0365931      	2.4632824e-07
0.0366471      	2.4683069e-07
0.0367009      	2.4733489e-07
0.0367546      	2.4783568e-07
0.0368082      	2.4833822e-07
0.0368616      	2.4883736e-07
0.0369149      	2.4933826e-07
0.0369681      	2.4983578e-07
0.0370212      	2.5033505e-07
0.0370741      	2.5083098e-07
0.037127       	2.5132864e-07
0.0371797      	2.5182297e-07
0.0372322      	2.5231903e-07
0.0372847      	2.5281178e-07
0.037337       	2.5330626e-07
0.0373892      	2.5379744e-07
0.0374413      	2.5429035e-07
0.0374933      	2.5477999e-07
0.0375451      	2.5527134e-07
0.0375969      	2.5575945e-07
0.0376485      	2.5624926e-07
0.0377         	2.5673584e-07
0.0377514      	2.5722413e-07
0.0378026      	2.5770921e-07
0.0378538      	2.5819600e-07
0.0379048      	2.5867959e-07
0.0379558      	2.5916489e-07
0.0380066      	2.5964730e-07
0.0380573      	2.6013326e-07
0.0381079      	2.6061607e-07
0.0381584      	2.6110054e-07
0.0382088      	2.6158188e-07
0.038259       	2.6206489e-07
0.0383092      	2.6254477e-07
0.0383592      	2.6302632e-07
0.0384092      	2.6350477e-07
0.038459       	2.6398488e-07
0.0385087      	2.6446190e-07
0.0385583      	2.6494057e-07
0.0386079      	2.6541618e-07
0.0386573      	2.6589344e-07
0.0387066      	2.6636764e-07
0.0387558      	2.6684350e-07
0.0388049      	2.6731632e-07
0.0388539      	2.6779079e-07
0.0389028      	2.6826224e-07
0.0389516      	2.6873534e-07
0.0390003      	2.6920542e-07
0.0390488      	2.6967505e-07
0.0390973      	2.7014170e-07
0.0391457      	2.7060999e-07
0.039194       	2.7107533e-07
0.0392422      	2.7154229e-07
0.0392903      	2.7200631e-07
0.0393383      	2.7247196e-07
0.0393862      	2.7293466e-07
0.039434       	2.7339899e-07
0.0394817      	2.7386040e-07
0.0395293      	2.7432342e-07
0.0395769      	2.7478353e-07
0.0396243      	2.7524526e-07
0.0396716      	2.7570410e-07
0.0397189      	2.7616454e-07
0.039766       	2.7662211e-07
0.0398131      	2.7708128e-07
0.03986        	2.7753760e-07
0.0399069      	2.7799551e-07
0.0399537      	2.7845059e-07
0.0400004      	2.7890737e-07
0.040047       	2.7937571e-07
0.0400935      	2.7984558e-07
0.0401399      	2.8031253e-07
0.0401862      	2.8078102e-07
0.0402324      	2.8124661e-07
0.0402786      	2.8171377e-07
0.0403246      	2.8217806e-07
0.0403706      	2.8264391e-07
0.0404165      	2.8310691e-07
0.0404623      	2.8357147e-07
0.040508       	2.8403319e-07
0.0405536      	2.8449647e-07
0.0405992      	2.8495692e-07
0.0406446      	2.8541892e-07
0.04069        	2.8587811e-07
0.0407353      	2.8633885e-07
0.0407805      	2.8679679e-07
0.0408256      	2.8725626e-07
0.0408706      	2.8771295e-07
0.0409155      	2.8817117e-07
0.0409604      	2.8862662e-07
0.0410052      	2.8908360e-07
0.0410499      	2.8953781e-07
0.0410945      	2.8999354e-07
0.041139       	2.9044652e-07
0.0411835      	2.9090102e-07
0.0412279      	2.9135276e-07
0.0412721      	2.9180602e-07
0.0413164      	2.9225654e-07
0.0413605      	2.9270855e-07
0.0414045      	2.9315785e-07
0.0414485      	2.9360863e-07
0.0414924      	2.9405670e-07
0.0415362      	2.9450626e-07
0.04158        	2.9495311e-07
0.0416236      	2.9540144e-07
0.0416672      	2.9584708e-07
0.0417107      	2.9629421e-07
0.0417542      	2.9673864e-07
0.0417975      	2.9718454e-07
0.0418408      	2.9762777e-07
0.041884       	2.9807246e-07
0.0419271      	2.9851451e-07
0.0419702      	2.9895801e-07
0.0420132      	2.9939826e-07
0.0420561      	2.9983857e-07
0.0420989      	3.0027626e-07
0.0421417      	3.0071542e-07
0.0421843      	3.0115196e-07
0.042227       	3.0158995e-07
0.0422695      	3.0202534e-07
0.042312       	3.0246218e-07
0.0423544      	3.0289641e-07
0.0423967      	3.0333209e-07
0.0424389      	3.0376519e-07
0.0424811      	3.0419972e-07
0.0425232      	3.0463168e-07
0.0425653      	3.0506507e-07
0.0426073      	3.0549589e-07
0.0426492      	3.0592815e-07
0.042691       	3.0635785e-07
0.0427328      	3.0678899e-07
0.0427745      	3.0721758e-07
0.0428161      	3.0764760e-07
0.0428576      	3.0807509e-07
0.0428991      	3.0850401e-07
0.0429405      	3.0893041e-07
0.0429819      	3.0935823e-07
0.0430232      	3.0978465e-07
0.0430644      	3.1021335e-07
0.0431056      	3.1063955e-07
0.0431467      	3.1106715e-07
0.0431877      	3.1149227e-07
0.0432286      	3.1191878e-07
0.0432695      	3.1234281e-07
0.0433104      	3.1276824e-07
0.0433511      	3.1319121e-07
0.0433918      	3.1361557e-07
0.0434324      	3.1403747e-07
0.043473       	3.1446077e-07
0.0435135      	3.1488163e-07
0.0435539      	3.1530387e-07
0.0435943      	3.1572368e-07
0.0436346      	3.1614488e-07
0.0436749      	3.1656366e-07
0.0437151      	3.1698382e-07
0.0437552      	3.1740157e-07
0.0437952      	3.1782070e-07
0.0438352      	3.1823743e-07
0.0438752      	3.1865555e-07
0.0439151      	3.1907127e-07
0.0439549      	3.1948836e-07
0.0439946      	3.1990308e-07
0.0440343      	3.2031918e-07
0.0440739      	3.2073290e-07
0.0441135      	3.2114800e-07
0.044153       	3.2156073e-07
0.0441925      	3.2197484e-07
0.0442319      	3.2238659e-07
0.0442712      	3.2279971e-07
0.0443105      	3.2321048e-07
0.0443497      	3.2362261e-07
0.0443888      	3.2403242e-07
0.0444279      	3.2444358e-07
0.044467       	3.2485241e-07
0.0445059      	3.2526260e-07
0.0445449      	3.2567048e-07
0.0445837      	3.2607971e-07
0.0446225      	3.2648664e-07
0.0446613      	3.2689492e-07
0.0447         	3.2730090e-07
0.0447386      	3.2770824e-07
0.0447772      	3.2811329e-07
0.0448157      	3.2851969e-07
0.0448542      	3.2892381e-07
0.0448926      	3.2932928e-07
0.0449309      	3.2973249e-07
0.0449692      	3.3013704e-07
0.0450075      	3.3053934e-07
0.0450457      	3.3094298e-07
0.0450838      	3.3134437e-07
0.0451219      	3.3174710e-07
0.0451599      	3.3214760e-07
0.0451979      	3.3254943e-07
0.0452358      	3.3294903e-07
0.0452736      	3.3334996e-07
0.0453114      	3.3374868e-07
0.0453492      	3.3414872e-07
0.0453869      	3.3454655e-07
0.0454245      	3.3494570e-07
0.0454621      	3.3534265e-07
0.0454997      	3.3574092e-07
0.0455371      	3.3613700e-07
0.0455746      	3.3653439e-07
0.045612       	3.3692960e-07
0.0456493      	3.3732613e-07
0.0456866      	3.3772049e-07
0.0457238      	3.3811616e-07
0.045761       	3.3850967e-07
0.0457981      	3.3890449e-07
0.0458351      	3.3929716e-07
0.0458722      	3.3969113e-07
0.0459091      	3.4008296e-07
0.0459461      	3.4047610e-07
0.0459829      	3.4086711e-07
0.0460197      	3.4125841e-07
0.0460565      	3.4164671e-07
0.0460932      	3.4203632e-07
0.0461299      	3.4242382e-07
0.0461665      	3.4281263e-07
0.0462031      	3.4319933e-07
0.0462396      	3.4358734e-07
0.0462761      	3.4397323e-07
0.0463125      	3.4436043e-07
0.0463489      	3.4474552e-07
0.0463852      	3.4513192e-07
0.0464215      	3.4551623e-07
0.0464577      	3.4590183e-07
0.0464939      	3.4628535e-07
0.04653        	3.4667017e-07
0.0465661      	3.4705291e-07
0.0466021      	3.4743694e-07
0.0466381      	3.4781891e-07
0.046674       	3.4820217e-07
0.0467099      	3.4858337e-07
0.0467458      	3.4896586e-07
0.0467816      	3.4934629e-07
0.0468173      	3.4972802e-07
0.046853       	3.5010770e-07
0.0468887      	3.5048866e-07
0.0469243      	3.5086760e-07
0.0469599      	3.5124781e-07
0.0469954      	3.5162600e-07
0.0470309      	3.5200709e-07
0.0470663      	3.5238640e-07
0.0471017      	3.5276698e-07
0.047137       	3.5314554e-07
0.0471723      	3.5352536e-07
0.0472075      	3.5390318e-07
0.0472428      	3.5428226e-07
0.0472779      	3.5465934e-07
0.047313       	3.5503769e-07
0.0473481      	3.5541404e-07
0.0473831      	3.5579165e-07
0.0474181      	3.5616728e-07
0.047453       	3.5654416e-07
0.0474879      	3.5691907e-07
0.0475228      	3.5729523e-07
0.0475576      	3.5766943e-07
0.0475923      	3.5804488e-07
0.047627       	3.5841836e-07
0.0476617      	3.5879310e-07
0.0476964      	3.5916589e-07
0.0477309      	3.5953992e-07
0.0477655      	3.5991201e-07
0.0478         	3.6028534e-07
0.0478344      	3.6065673e-07
0.0478689      	3.6102937e-07
0.0479032      	3.6140007e-07
0.0479376      	3.6177202e-07
0.0479719      	3.6214204e-07
0.0480061      	3.6251331e-07
0.0480403      	3.6288266e-07
0.0480745      	3.6325323e-07
0.0481086      	3.6362189e-07
0.0481427      	3.6399178e-07
0.0481767      	3.6435976e-07
0.0482107      	3.6472897e-07
0.0482447      	3.6509627e-07
0.0482786      	3.6546481e-07
0.0483125      	3.6583144e-07
0.0483463      	3.6619931e-07
0.0483801      	3.6656529e-07
0.0484138      	3.6693248e-07
0.0484476      	3.6729780e-07
0.0484812      	3.6766434e-07
0.0485149      	3.6802901e-07
0.0485485      	3.6839489e-07
0.048582       	3.6875889e-07
0.0486155      	3.6912411e-07
0.048649       	3.6948747e-07
0.0486824      	3.6985204e-07
0.0487158      	3.7021476e-07
0.0487492      	3.7057868e-07
0.0487825      	3.7094075e-07
0.0488158      	3.7130403e-07
0.048849       	3.7166547e-07
0.0488822      	3.7202811e-07
0.0489154      	3.7238891e-07
0.0489485      	3.7275091e-07
0.0489816      	3.7311109e-07
0.0490146      	3.7347246e-07
0.0490476      	3.7383201e-07
0.0490806      	3.7419276e-07
0.0491135      	3.7455168e-07
0.0491464      	3.7491181e-07
0.0491793      	3.7527011e-07
0.0492121      	3.7562961e-07
0.0492449      	3.7598730e-07
0.0492776      	3.7634618e-07
0.0493103      	3.7670326e-07
0.049343       	3.7706152e-07
0.0493756      	3.7741798e-07
0.0494082      	3.7777563e-07
0.0494408      	3.7813148e-07
0.0494733      	3.7848852e-07
0.0495058      	3.7884378e-07
0.0495382      	3.7920022e-07
0.0495706      	3.7955487e-07
0.049603       	3.7991069e-07
0.0496353      	3.8026474e-07
0.0496676      	3.8061997e-07
0.0496999      	3.8097343e-07
0.0497321      	3.8132806e-07
0.0497643      	3.8168093e-07
0.0497965      	3.8203496e-07
0.0498286      	3.8238724e-07
0.0498607      	3.8274069e-07
0.0498927      	3.8309238e-07
0.0499247      	3.8344524e-07
0.0499567      	3.8379635e-07
0.0499886      	3.8414863e-07
0.0500206      	3.8408652e-07
0.0500524      	3.8379899e-07
0.0500843      	3.8351276e-07
0.0501162      	3.8322987e-07
0.050148       	3.8294760e-07
0.0501798      	3.8266806e-07
0.0502116      	3.8238866e-07
0.0502434      	3.8211163e-07
0.0502752      	3.8183449e-07
0.050307       	3.8155952e-07
0.0503388      	3.8128432e-07
0.0503705      	3.8101120e-07
0.0504022      	3.8073781e-07
0.0504339      	3.8046648e-07
0.0504656      	3.8019486e-07
0.0504973      	3.7992531e-07
0.050529       	3.7965550e-07
0.0505606      	3.7938778e-07
0.0505923      	3.7911981e-07
0.0506239      	3.7885399e-07
0.0506555      	3.7858798e-07
0.0506871      	3.7832417e-07
0.0507187      	3.7806023e-07
0.0507503      	3.7779853e-07
0.0507818      	3.7753676e-07
0.0508134      	3.7727729e-07
0.0508449      	3.7701780e-07
0.0508764      	3.7676067e-07
0.0509079      	3.7650358e-07
0.0509394      	3.7624890e-07
0.0509708      	3.7599433e-07
0.0510023      	3.7574234e-07
0.0510337      	3.7549213e-07
0.0510652      	3.7524444e-07
0.0510966      	3.7499695e-07
0.051128       	3.7475202e-07
0.0511594      	3.7450735e-07
0.0511907      	3.7426530e-07
0.0512221      	3.7402357e-07
0.0512534      	3.7378449e-07
0.0512848      	3.7354579e-07
0.0513161      	3.7330980e-07
0.0513474      	3.7307423e-07
0.0513787      	3.7284142e-07
0.0514099      	3.7260907e-07
0.0514412      	3.7237952e-07
0.0514725      	3.7215048e-07
0.0515037      	3.7192428e-07
0.0515349      	3.7169864e-07
0.0515661      	3.7147587e-07
0.0515973      	3.7125369e-07
0.0516285      	3.7103443e-07
0.0516596      	3.7081580e-07
0.0516908      	3.7060011e-07
0.0517219      	3.7038509e-07
0.051753       	3.7017305e-07
0.0517842      	3.6996171e-07
0.0518153      	3.6975338e-07
0.0518463      	3.6954578e-07
0.0518774      	3.6934121e-07
0.0519085      	3.6913741e-07
0.0519395      	3.6893666e-07
0.0519705      	3.6873670e-07
0.0520015      	3.6853982e-07
0.0520325      	3.6834375e-07
0.0520635      	3.6815078e-07
0.0520945      	3.6795864e-07
0.0521255      	3.6776961e-07
0.0521564      	3.6758144e-07
0.0521873      	3.6739639e-07
0.0522183      	3.6721222e-07
0.0522492      	3.6703119e-07
0.0522801      	3.6685104e-07
0.0523109      	3.6667404e-07
0.0523418      	3.6649793e-07
0.0523727      	3.6632499e-07
0.0524035      	3.6615295e-07
0.0524343      	3.6598408e-07
0.0524651      	3.6581612e-07
0.0524959      	3.6565135e-07
0.0525267      	3.6548750e-07
0.0525575      	3.6532683e-07
0.0525883      	3.6516710e-07
0.052619       	3.6501055e-07
0.0526497      	3.6485494e-07
0.0526805      	3.6470252e-07
0.0527112      	3.6455104e-07
0.0527419      	3.6440274e-07
0.0527725      	3.6425538e-07
0.0528032      	3.6411120e-07
0.0528339      	3.6396796e-07
0.0528645      	3.6382790e-07
0.0528951      	3.6368879e-07
0.0529257      	3.6355284e-07
0.0529563      	3.6341784e-07
0.0529869      	3.6328600e-07
0.0530175      	3.6315510e-07
0.0530481      	3.6302736e-07
0.0530786      	3.6290054e-07
0.0531092      	3.6277688e-07
0.0531397      	3.6265414e-07
0.0531702      	3.6253454e-07
0.0532007      	3.6241586e-07
0.0532312      	3.6230030e-07
0.0532617      	3.6218564e-07
0.0532921      	3.6207409e-07
0.0533226      	3.6196344e-07
0.053353       	3.6185589e-07
0.0533834      	3.6174922e-07
0.0534138      	3.6164564e-07
0.0534442      	3.6154292e-07
0.0534746      	3.6144327e-07
0.053505       	3.6134448e-07
0.0535354      	3.6124874e-07
0.0535657      	3.6115384e-07
0.053596       	3.6106198e-07
0.0536264      	3.6097094e-07
0.0536567      	3.6088292e-07
0.053687       	3.6079570e-07
0.0537172      	3.6071148e-07
0.0537475      	3.6062806e-07
0.0537778      	3.6054761e-07
0.053808       	3.6046795e-07
0.0538383      	3.6039124e-07
0.0538685      	3.6031528e-07
0.0538987      	3.6024227e-07
0.0539289      	3.6017000e-07
0.0539591      	3.6010064e-07
0.0539892      	3.6003200e-07
0.0540194      	3.5996518e-07
0.0540495      	3.5989846e-07
0.0540797      	3.5983462e-07
0.0541098      	3.5977147e-07
0.0541399      	3.5971117e-07
0.05417        	3.5965154e-07
0.0542001      	3.5959474e-07
0.0542302      	3.5953859e-07
0.0542602      	3.5948524e-07
0.0542903      	3.5943252e-07
0.0543203      	3.5938258e-07
0.0543503      	3.5933323e-07
0.0543803      	3.5928664e-07
0.0544103      	3.5924062e-07
0.0544403      	3.5919732e-07
0.0544703      	3.5915457e-07
0.0545002      	3.5911451e-07
0.0545302      	3.5907498e-07
0.0545601      	3.5903813e-07
0.0545901      	3.5900178e-07
0.05462        	3.5896807e-07
0.0546499      	3.5893484e-07
0.0546798      	3.5890423e-07
0.0547096      	3.5887408e-07
0.0547395      	3.5884652e-07
0.0547694      	3.5881939e-07
0.0547992      	3.5879483e-07
0.054829       	3.5877068e-07
0.0548589      	3.5874907e-07
0.0548887      	3.5872784e-07
0.0549184      	3.5870913e-07
0.0549482      	3.5869077e-07
0.054978       	3.5867492e-07
0.0550078      	3.5865982e-07
0.0550375      	3.5864842e-07
0.0550672      	3.5863731e-07
0.055097       	3.5862863e-07
0.0551267      	3.5862023e-07
0.0551564      	3.5861423e-07
0.0551861      	3.5860849e-07
0.0552157      	3.5860513e-07
0.0552454      	3.5860199e-07
0.055275       	3.5860120e-07
0.0553047      	3.5860061e-07
0.0553343      	3.5860234e-07
0.0553639      	3.5860425e-07
0.0553935      	3.5860845e-07
0.0554231      	3.5861280e-07
0.0554527      	3.5861942e-07
0.0554823      	3.5862617e-07
0.0555118      	3.5863515e-07
0.0555414      	3.5864424e-07
0.0555709      	3.5865553e-07
0.0556004      	3.5866690e-07
0.0556299      	3.5868045e-07
0.0556594      	3.5869406e-07
0.0556889      	3.5870982e-07
0.0557184      	3.5872561e-07
0.0557479      	3.5874354e-07
0.0557773      	3.5876147e-07
0.0558068      	3.5878150e-07
0.0558362      	3.5880151e-07
0.0558656      	3.5882360e-07
0.055895       	3.5884564e-07
0.0559244      	3.5886974e-07
0.0559538      	3.5889377e-07
0.0559832      	3.5891981e-07
0.0560125      	3.5894577e-07
0.0560419      	3.5897373e-07
0.0560712      	3.5900157e-07
0.0561005      	3.5903139e-07
0.0561298      	3.5906106e-07
0.0561591      	3.5909267e-07
0.0561884      	3.5912413e-07
0.0562177      	3.5915750e-07
0.056247       	3.5919069e-07
0.0562762      	3.5922577e-07
0.0563055      	3.5926065e-07
0.0563347      	3.5929739e-07
0.0563639      	3.5933389e-07
0.0563932      	3.5937223e-07
0.0564224      	3.5941032e-07
0.0564515      	3.5945023e-07
0.0564807      	3.5948987e-07
0.0565099      	3.5953130e-07
0.056539       	3.5957244e-07
0.0565682      	3.5961534e-07
0.0565973      	3.5965793e-07
0.0566264      	3.5970225e-07
0.0566556      	3.5974624e-07
0.0566847      	3.5979194e-07
0.0567137      	3.5983728e-07
0.0567428      	3.5988432e-07
0.0567719      	3.5993097e-07
0.0568009      	3.5997930e-07
0.05683        	3.6002722e-07
0.056859       	3.6007680e-07
0.056888       	3.6012596e-07
0.056917       	3.6017675e-07
0.056946       	3.6022710e-07
0.056975       	3.6027905e-07
0.057004       	3.6033055e-07
0.057033       	3.6038363e-07
0.0570619      	3.6043623e-07
0.0570909      	3.6049040e-07
0.0571198      	3.6054406e-07
0.0571487      	3.6059927e-07
0.0571776      	3.6065396e-07
0.0572065      	3.6071017e-07
0.0572354      	3.6076585e-07
0.0572643      	3.6082302e-07
0.0572932      	3.6087964e-07
0.057322       	3.6093773e-07
0.0573509      	3.6099526e-07
0.0573797      	3.6105424e-07
0.0574085      	3.6111264e-07
0.0574374      	3.6117247e-07
0.0574662      	3.6123171e-07
0.057495       	3.6129236e-07
0.0575237      	3.6135239e-07
0.0575525      	3.6141382e-07
0.0575813      	3.6147461e-07
0.05761        	3.6153678e-07
0.0576388      	3.6159829e-07
0.0576675      	3.6166117e-07
0.0576962      	3.6172338e-07
0.0577249      	3.6178693e-07
0.0577536      	3.6184980e-07
0.0577823      	3.6191399e-07
0.057811       	3.6197748e-07
0.0578396      	3.6204228e-07
0.0578683      	3.6210637e-07
0.0578969      	3.6217175e-07
0.0579255      	3.6223640e-07
0.0579542      	3.6230233e-07
0.0579828      	3.6236752e-07
0.0580114      	3.6243333e-07
0.05804        	3.6249743e-07
0.0580685      	3.6256278e-07
0.0580971      	3.6262736e-07
0.0581257      	3.6269317e-07
0.0581542      	3.6275821e-07
0.0581827      	3.6282446e-07
0.0582113      	3.6288992e-07
0.0582398      	3.6295658e-07
0.0582683      	3.6302244e-07
0.0582968      	3.6308948e-07
0.0583253      	3.6315570e-07
0.0583537      	3.6322309e-07
0.0583822      	3.6328966e-07
0.0584107      	3.6335738e-07
0.0584391      	3.6342425e-07
0.0584675      	3.6349228e-07
0.0584959      	3.6355944e-07
0.0585244      	3.6362772e-07
0.0585528      	3.6369515e-07
0.0585811      	3.6376369e-07
0.0586095      	3.6383135e-07
0.0586379      	3.6390011e-07
0.0586663      	3.6396798e-07
0.0586946      	3.6403694e-07
0.0587229      	3.6410500e-07
0.0587513      	3.6417414e-07
0.0587796      	3.6424238e-07
0.0588079      	3.6431168e-07
0.0588362      	3.6438007e-07
0.0588645      	3.6444952e-07
0.0588928      	3.6451805e-07
0.058921       	3.6458762e-07
0.0589493      	3.6465626e-07
0.0589775      	3.6472594e-07
0.0590058      	3.6479499e-07
0.059034       	3.6486631e-07
0.0590622      	3.6493668e-07
0.0590904      	3.6500806e-07
0.0591186      	3.6507847e-07
0.0591468      	3.6514986e-07
0.059175       	3.6522029e-07
0.0592031      	3.6529172e-07
0.0592313      	3.6536215e-07
0.0592594      	3.6543356e-07
0.0592876      	3.6550398e-07
0.0593157      	3.6557537e-07
0.0593438      	3.6564577e-07
0.0593719      	3.6571713e-07
0.0594         	3.6578748e-07
0.0594281      	3.6585879e-07
0.0594562      	3.6592909e-07
0.0594842      	3.6600034e-07
0.0595123      	3.6607056e-07
0.0595403      	3.6614170e-07
0.0595684      	3.6621182e-07
0.0595964      	3.6628286e-07
0.0596244      	3.6635288e-07
0.0596524      	3.6642381e-07
0.0596804      	3.6649372e-07
0.0597084      	3.6656454e-07
0.0597364      	3.6663432e-07
0.0597643      	3.6670500e-07
0.0597923      	3.6677464e-07
0.0598202      	3.6684517e-07
0.0598482      	3.6691466e-07
0.0598761      	3.6698504e-07
0.059904       	3.6705437e-07
0.0599319      	3.6712457e-07
0.0599598      	3.6719372e-07
0.0599877      	3.6726374e-07
0.0600156      	3.6733271e-07
0.0600434      	3.6740254e-07
0.0600713      	3.6747130e-07
0.0600991      	3.6754093e-07
0.060127       	3.6760948e-07
0.0601548      	3.6767889e-07
0.0601826      	3.6774723e-07
0.0602104      	3.6781641e-07
0.0602382      	3.6788451e-07
0.060266       	3.6795346e-07
0.0602938      	3.6802132e-07
0.0603216      	3.6809002e-07
0.0603493      	3.6815763e-07
0.0603771      	3.6822608e-07
0.0604048      	3.6829344e-07
0.0604325      	3.6836162e-07
0.0604603      	3.6842871e-07
0.060488       	3.6849662e-07
0.0605157      	3.6856345e-07
0.0605434      	3.6863108e-07
0.0605711      	3.6869762e-07
0.0605987      	3.6876496e-07
0.0606264      	3.6883122e-07
0.060654       	3.6889828e-07
0.0606817      	3.6896424e-07
0.0607093      	3.6903100e-07
0.0607369      	3.6909667e-07
0.0607646      	3.6916313e-07
0.0607922      	3.6922849e-07
0.0608198      	3.6929463e-07
0.0608473      	3.6935968e-07
0.0608749      	3.6942551e-07
0.0609025      	3.6949024e-07
0.06093        	3.6955576e-07
0.0609576      	3.6962018e-07
0.0609851      	3.6968537e-07
0.0610127      	3.6974946e-07