# Region type : patch outlet
# Faces        : 34923
# Area         : 6.0186191e-04
# Scale factor : 1.0000000e+00
# Time         	sum(phi)
6e-05          	6.1795231e-08
0.000132       	1.3642144e-07
0.0002184      	2.2666547e-07
0.00032208     	3.3593975e-07
0.000446496    	4.6849507e-07
0.000595795    	6.2959385e-07
0.000774954    	8.2586294e-07
0.000989945    	1.0656119e-06
0.00124793     	1.3595014e-06
0.00155752     	1.7210132e-06
0.00192903     	2.1676400e-06
0.00237483     	2.7218596e-06
0.0029098      	3.4134730e-06
0.00355176     	4.2816687e-06
0.00429766     	5.3432145e-06
0.00475367     	6.0199169e-06
0.00497034     	6.3488833e-06
0.00518395     	6.6776466e-06
0.00542139     	7.0485171e-06
0.00568505     	7.4669525e-06
0.00595404     	7.9011343e-06
0.0062143      	8.3283858e-06
0.0064687      	8.7527228e-06
0.00672407     	9.1851989e-06
0.00698341     	9.6312121e-06
0.00724555     	1.0088519e-05
0.00750815     	1.0553606e-05
0.00777023     	1.1024589e-05
0.0080321      	1.1502163e-05
0.0082944      	1.1987327e-05
0.00855734     	1.2480673e-05
0.00882082     	1.2981926e-05
0.00908464     	1.3490974e-05
0.00934862     	1.4007605e-05
0.00961275     	1.4531588e-05
0.00987705     	1.5062862e-05
0.0101415      	1.5601287e-05
0.0104062      	1.6146715e-05
0.0106709      	1.6699454e-05
0.0109358      	1.7259360e-05
0.0112007      	1.7826558e-05
0.0114658      	1.8400924e-05
0.0117309      	1.8982578e-05
0.0119961      	1.9571388e-05
0.0122614      	2.0168098e-05
0.0125268      	2.0771992e-05
0.0127923      	2.1383184e-05
0.0130547      	2.1994198e-05
0.0133104      	2.2595561e-05
0.0135598      	2.3188300e-05
0.0138031      	2.3772922e-05
0.0140406      	2.4348959e-05
0.0142724      	2.4917418e-05
0.0144989      	2.5478093e-05
0.0147204      	2.6031479e-05
0.0149373      	2.6577846e-05
0.0151497      	2.7117179e-05
0.0153579      	2.7649956e-05
0.0155621      	2.8176738e-05
0.0157624      	2.8697699e-05
0.0159592      	2.9213166e-05
0.0161525      	2.9723280e-05
0.0163424      	3.0228335e-05
0.0165292      	3.0728444e-05
0.016713       	3.1223871e-05
0.0168938      	3.1714709e-05
0.0170719      	3.2201435e-05
0.0172473      	3.2684235e-05
0.0174201      	3.3162972e-05
0.0175903      	3.3637705e-05
0.0177582      	3.4108635e-05
0.0179238      	3.4575810e-05
0.0180872      	3.5039107e-05
0.0182484      	3.5498605e-05
0.0184075      	3.5954748e-05
0.0185646      	3.6407562e-05
0.0187197      	3.6857209e-05
0.0188729      	3.7303710e-05
0.0190244      	3.7747304e-05
0.019174       	3.8188386e-05
0.0193219      	3.8626621e-05
0.0194682      	3.9062021e-05
0.0196128      	3.9494717e-05
0.0197558      	3.9924715e-05
0.0198973      	4.0352140e-05
0.0200373      	4.0776846e-05
0.0201759      	4.1198699e-05
0.020313       	4.1618100e-05
0.0204487      	4.2035162e-05
0.0205831      	4.2449879e-05
0.0207162      	4.2862359e-05
0.020848       	4.3272593e-05
0.0209786      	4.3680683e-05
0.0211079      	4.4086621e-05
0.0212361      	4.4490503e-05
0.0213631      	4.4892317e-05
0.021489       	4.5292158e-05
0.0216137      	4.5690010e-05
0.0217374      	4.6085966e-05
0.02186        	4.6480008e-05
0.0219815      	4.6872223e-05
0.0221021      	4.7263037e-05
0.0222216      	4.7652167e-05
0.0223402      	4.8039517e-05
0.0224579      	4.8425168e-05
0.0225745      	4.8809099e-05
0.0226903      	4.9191389e-05
0.0228052      	4.9572019e-05
0.0229192      	4.9951063e-05
0.0230323      	5.0328356e-05
0.0231446      	5.0703754e-05
0.0232561      	5.1077599e-05
0.0233667      	5.1449964e-05
0.0234765      	5.1820826e-05
0.0235856      	5.2190253e-05
0.0236939      	5.2558223e-05
0.0238014      	5.2924803e-05
0.0239082      	5.3289969e-05
0.0240142      	5.3653787e-05
0.0241196      	5.4016232e-05
0.0242242      	5.4377369e-05
0.0243281      	5.4737173e-05
0.0244314      	5.5095706e-05
0.024534       	5.5452944e-05
0.0246359      	5.5808946e-05
0.0247372      	5.6163688e-05
0.0248378      	5.6517230e-05
0.0249378      	5.6869546e-05
0.0250372      	5.7220875e-05
0.025136       	5.7571312e-05
0.0252341      	5.7920611e-05
0.0253317      	5.8268744e-05
0.0254287      	5.8615769e-05
0.0255252      	5.8961657e-05
0.025621       	5.9306465e-05
0.0257163      	5.9650165e-05
0.0258111      	5.9992811e-05
0.0259053      	6.0334377e-05
0.025999       	6.0674915e-05
0.0260921      	6.1013929e-05
0.0261848      	6.1351937e-05
0.0262769      	6.1688917e-05
0.0263686      	6.2024920e-05
0.0264597      	6.2359920e-05
0.0265503      	6.2693965e-05
0.0266405      	6.3027029e-05
0.0267302      	6.3359161e-05
0.0268194      	6.3690333e-05
0.0269082      	6.4020595e-05
0.0269965      	6.4349918e-05
0.0270843      	6.4678796e-05
0.0271717      	6.5006774e-05
0.0272587      	6.5333879e-05
0.0273452      	6.5660084e-05
0.0274313      	6.5985434e-05
0.027517       	6.6309904e-05
0.0276022      	6.6633537e-05
0.0276871      	6.6956308e-05
0.0277715      	6.7278260e-05
0.0278555      	6.7599367e-05
0.0279391      	6.7919672e-05
0.0280224      	6.8239026e-05
0.0281052      	6.8557262e-05
0.0281877      	6.8874688e-05
0.0282698      	6.9191345e-05
0.0283515      	6.9507208e-05
0.0284328      	6.9822318e-05
0.0285138      	7.0136648e-05
0.0285944      	7.0450239e-05
0.0286746      	7.0763066e-05
0.0287545      	7.1075168e-05
0.0288341      	7.1386520e-05
0.0289133      	7.1697161e-05
0.0289921      	7.2007065e-05
0.0290707      	7.2316271e-05
0.0291488      	7.2624754e-05
0.0292267      	7.2932552e-05
0.0293042      	7.3239640e-05
0.0293814      	7.3546055e-05
0.0294583      	7.3851772e-05
0.0295348      	7.4156828e-05
0.0296111      	7.4461199e-05
0.029687       	7.4764921e-05
0.0297626      	7.5067969e-05
0.029838       	7.5370380e-05
0.029913       	7.5672127e-05
0.0299877      	7.5973248e-05
0.0300621      	7.6274082e-05
0.0301362      	7.6574372e-05
0.0302101      	7.6874019e-05
0.0302836      	7.7173060e-05
0.0303569      	7.7471469e-05
0.0304299      	7.7769281e-05
0.0305026      	7.8066471e-05
0.030575       	7.8363075e-05
0.0306472      	7.8659067e-05
0.0307191      	7.8954482e-05
0.0307907      	7.9249295e-05
0.030862       	7.9543539e-05
0.0309331      	7.9837191e-05
0.0310039      	8.0130260e-05
0.0310745      	8.0422340e-05
0.0311448      	8.0713872e-05
0.0312149      	8.1004830e-05
0.0312847      	8.1295247e-05
0.0313542      	8.1585099e-05
0.0314236      	8.1874419e-05
0.0314926      	8.2163182e-05
0.0315614      	8.2451421e-05
0.03163        	8.2739112e-05
0.0316984      	8.3026286e-05
0.0317665      	8.3312919e-05
0.0318343      	8.3599044e-05
0.031902       	8.3884635e-05
0.0319694      	8.4169726e-05
0.0320366      	8.4454291e-05
0.0321035      	8.4738361e-05
0.0321703      	8.5021914e-05
0.0322368      	8.5304980e-05
0.0323031      	8.5587535e-05
0.0323692      	8.5869610e-05
0.032435       	8.6151182e-05
0.0325006      	8.6432280e-05
0.0325661      	8.6712881e-05
0.0326313      	8.6993015e-05
0.0326963      	8.7272659e-05
0.0327611      	8.7551843e-05
0.0328257      	8.7830543e-05
0.0328901      	8.8108789e-05
0.0329543      	8.8386558e-05
0.0330182      	8.8663996e-05
0.033082       	8.8941258e-05
0.0331456      	8.9218076e-05
0.033209       	8.9494429e-05
0.0332722      	8.9770345e-05
0.0333352      	9.0045800e-05
0.033398       	9.0320824e-05
0.0334606      	9.0595394e-05
0.033523       	9.0869539e-05
0.0335853      	9.1143234e-05
0.0336473      	9.1416510e-05
0.0337092      	9.1689343e-05
0.0337709      	9.1961760e-05
0.0338324      	9.2233741e-05
0.0338937      	9.2505311e-05
0.0339548      	9.2776450e-05
0.0340158      	9.3047079e-05
0.0340766      	9.3316981e-05
0.0341372      	9.3586485e-05
0.0341976      	9.3855568e-05
0.0342579      	9.4124258e-05
0.0343179      	9.4392531e-05
0.0343779      	9.4660416e-05
0.0344376      	9.4927889e-05
0.0344972      	9.5194978e-05
0.0345566      	9.5461661e-05
0.0346158      	9.5727965e-05
0.0346749      	9.5993867e-05
0.0347338      	9.6259394e-05
0.0347926      	9.6524523e-05
0.0348512      	9.6789283e-05
0.0349096      	9.7053649e-05
0.0349679      	9.7317650e-05
0.035026       	9.7581440e-05
0.035084       	9.7845087e-05
0.0351418      	9.8108349e-05
0.0351994      	9.8371253e-05
0.0352569      	9.8633777e-05
0.0353143      	9.8895945e-05
0.0353715      	9.9157738e-05
0.0354285      	9.9419180e-05
0.0354854      	9.9680250e-05
0.0355422      	9.9940973e-05
0.0355987      	1.0020133e-04
0.0356552      	1.0046134e-04
0.0357115      	1.0072099e-04
0.0357677      	1.0098030e-04
0.0358237      	1.0123925e-04
0.0358795      	1.0149786e-04
0.0359353      	1.0175612e-04
0.0359908      	1.0201404e-04
0.0360463      	1.0227129e-04
0.0361016      	1.0252814e-04
0.0361568      	1.0278465e-04
0.0362118      	1.0304083e-04
0.0362667      	1.0329667e-04
0.0363215      	1.0355219e-04
0.0363761      	1.0380736e-04
0.0364306      	1.0406222e-04
0.0364849      	1.0431674e-04
0.0365391      	1.0457095e-04
0.0365932      	1.0482482e-04
0.0366472      	1.0507838e-04
0.036701       	1.0533161e-04
0.0367547      	1.0558454e-04
0.0368083      	1.0583713e-04
0.0368618      	1.0608942e-04
0.0369151      	1.0634139e-04
0.0369683      	1.0659306e-04
0.0370213      	1.0684440e-04
0.0370743      	1.0709545e-04
0.0371271      	1.0734618e-04
0.0371798      	1.0759661e-04
0.0372324      	1.0784673e-04
0.0372848      	1.0809655e-04
0.0373371      	1.0834606e-04
0.0373893      	1.0859529e-04
0.0374414      	1.0884420e-04
0.0374934      	1.0909283e-04
0.0375453      	1.0934115e-04
0.037597       	1.0958919e-04
0.0376486      	1.0983692e-04
0.0377001      	1.1008437e-04
0.0377515      	1.1033152e-04
0.0378028      	1.1057840e-04
0.0378539      	1.1082497e-04
0.037905       	1.1107127e-04
0.0379559      	1.1131728e-04
0.0380067      	1.1156306e-04
0.0380574      	1.1180887e-04
0.038108       	1.1205442e-04
0.0381585      	1.1229967e-04
0.0382089      	1.1254466e-04
0.0382592      	1.1278935e-04
0.0383093      	1.1303378e-04
0.0383594      	1.1327793e-04
0.0384093      	1.1352181e-04
0.0384591      	1.1376541e-04
0.0385089      	1.1400874e-04
0.0385585      	1.1425180e-04
0.038608       	1.1449460e-04
0.0386574      	1.1473712e-04
0.0387067      	1.1497938e-04
0.0387559      	1.1522137e-04
0.038805       	1.1546310e-04
0.038854       	1.1570456e-04
0.0389029      	1.1594577e-04
0.0389517      	1.1618670e-04
0.0390004      	1.1642739e-04
0.039049       	1.1666744e-04
0.0390975      	1.1690724e-04
0.0391459      	1.1714677e-04
0.0391941      	1.1738606e-04
0.0392423      	1.1762509e-04
0.0392904      	1.1786387e-04
0.0393384      	1.1810239e-04
0.0393863      	1.1834067e-04
0.0394341      	1.1857869e-04
0.0394819      	1.1881648e-04
0.0395295      	1.1905400e-04
0.039577       	1.1929129e-04
0.0396244      	1.1952833e-04
0.0396717      	1.1976513e-04
0.039719       	1.2000167e-04
0.0397661      	1.2023799e-04
0.0398132      	1.2047405e-04
0.0398601      	1.2070988e-04
0.039907       	1.2094547e-04
0.0399538      	1.2118082e-04
0.0400005      	1.2141595e-04
0.0400471      	1.2165339e-04
0.0400936      	1.2189057e-04
0.04014        	1.2212752e-04
0.0401863      	1.2236423e-04
0.0402326      	1.2260071e-04
0.0402787      	1.2283695e-04
0.0403248      	1.2307296e-04
0.0403707      	1.2330872e-04
0.0404166      	1.2354427e-04
0.0404624      	1.2377957e-04
0.0405081      	1.2401465e-04
0.0405537      	1.2424949e-04
0.0405993      	1.2448411e-04
0.0406447      	1.2471850e-04
0.0406901      	1.2495266e-04
0.0407354      	1.2518659e-04
0.0407806      	1.2542031e-04
0.0408257      	1.2565379e-04
0.0408707      	1.2588705e-04
0.0409157      	1.2612009e-04
0.0409605      	1.2635291e-04
0.0410053      	1.2658550e-04
0.04105        	1.2681787e-04
0.0410946      	1.2705002e-04
0.0411391      	1.2728196e-04
0.0411836      	1.2751368e-04
0.041228       	1.2774518e-04
0.0412723      	1.2797646e-04
0.0413165      	1.2820753e-04
0.0413606      	1.2843838e-04
0.0414047      	1.2866903e-04
0.0414486      	1.2889945e-04
0.0414925      	1.2912967e-04
0.0415363      	1.2935967e-04
0.0415801      	1.2958947e-04
0.0416237      	1.2981905e-04
0.0416673      	1.3004843e-04
0.0417108      	1.3027759e-04
0.0417543      	1.3050655e-04
0.0417976      	1.3073530e-04
0.0418409      	1.3096384e-04
0.0418841      	1.3119218e-04
0.0419272      	1.3142032e-04
0.0419703      	1.3164825e-04
0.0420133      	1.3187587e-04
0.0420562      	1.3210304e-04
0.042099       	1.3233001e-04
0.0421418      	1.3255678e-04
0.0421845      	1.3278336e-04
0.0422271      	1.3300973e-04
0.0422696      	1.3323590e-04
0.0423121      	1.3346188e-04
0.0423545      	1.3368766e-04
0.0423968      	1.3391324e-04
0.0424391      	1.3413863e-04
0.0424812      	1.3436382e-04
0.0425233      	1.3458882e-04
0.0425654      	1.3481362e-04
0.0426074      	1.3503824e-04
0.0426493      	1.3526266e-04
0.0426911      	1.3548689e-04
0.0427329      	1.3571092e-04
0.0427746      	1.3593477e-04
0.0428162      	1.3615843e-04
0.0428577      	1.3638190e-04
0.0428992      	1.3660518e-04
0.0429407      	1.3682827e-04
0.042982       	1.3705117e-04
0.0430233      	1.3727409e-04
0.0430645      	1.3749697e-04
0.0431057      	1.3771967e-04
0.0431468      	1.3794217e-04
0.0431878      	1.3816450e-04
0.0432287      	1.3838664e-04
0.0432696      	1.3860860e-04
0.0433105      	1.3883037e-04
0.0433512      	1.3905197e-04
0.0433919      	1.3927338e-04
0.0434325      	1.3949461e-04
0.0434731      	1.3971566e-04
0.0435136      	1.3993654e-04
0.043554       	1.4015722e-04
0.0435944      	1.4037774e-04
0.0436347      	1.4059808e-04
0.043675       	1.4081824e-04
0.0437152      	1.4103822e-04
0.0437553      	1.4125803e-04
0.0437953      	1.4147765e-04
0.0438353      	1.4169711e-04
0.0438753      	1.4191639e-04
0.0439152      	1.4213550e-04
0.043955       	1.4235443e-04
0.0439947      	1.4257320e-04
0.0440344      	1.4279178e-04
0.044074       	1.4301020e-04
0.0441136      	1.4322845e-04
0.0441531      	1.4344652e-04
0.0441926      	1.4366443e-04
0.044232       	1.4388217e-04
0.0442713      	1.4409973e-04
0.0443106      	1.4431713e-04
0.0443498      	1.4453436e-04
0.0443889      	1.4475142e-04
0.044428       	1.4496832e-04
0.0444671      	1.4518505e-04
0.044506       	1.4540161e-04
0.044545       	1.4561801e-04
0.0445838      	1.4583424e-04
0.0446226      	1.4605031e-04
0.0446614      	1.4626622e-04
0.0447001      	1.4648196e-04
0.0447387      	1.4669754e-04
0.0447773      	1.4691296e-04
0.0448158      	1.4712821e-04
0.0448543      	1.4734330e-04
0.0448927      	1.4755823e-04
0.044931       	1.4777301e-04
0.0449693      	1.4798762e-04
0.0450076      	1.4820207e-04
0.0450458      	1.4841636e-04
0.0450839      	1.4863050e-04
0.045122       	1.4884447e-04
0.04516        	1.4905829e-04
0.0451979      	1.4927195e-04
0.0452359      	1.4948546e-04
0.0452737      	1.4969881e-04
0.0453115      	1.4991200e-04
0.0453493      	1.5012504e-04
0.045387       	1.5033792e-04
0.0454246      	1.5055065e-04
0.0454622      	1.5076323e-04
0.0454997      	1.5097564e-04
0.0455372      	1.5118792e-04
0.0455747      	1.5140003e-04
0.045612       	1.5161200e-04
0.0456494      	1.5182380e-04
0.0456867      	1.5203547e-04
0.0457239      	1.5224697e-04
0.0457611      	1.5245834e-04
0.0457982      	1.5266954e-04
0.0458352      	1.5288060e-04
0.0458723      	1.5309151e-04
0.0459092      	1.5330227e-04
0.0459462      	1.5351288e-04
0.045983       	1.5372335e-04
0.0460198      	1.5393349e-04
0.0460566      	1.5414333e-04
0.0460933      	1.5435302e-04
0.04613        	1.5456257e-04
0.0461666      	1.5477197e-04
0.0462032      	1.5498123e-04
0.0462397      	1.5519034e-04
0.0462762      	1.5539931e-04
0.0463126      	1.5560813e-04
0.0463489      	1.5581682e-04
0.0463853      	1.5602535e-04
0.0464215      	1.5623375e-04
0.0464578      	1.5644200e-04
0.046494       	1.5665011e-04
0.0465301      	1.5685808e-04
0.0465662      	1.5706591e-04
0.0466022      	1.5727360e-04
0.0466382      	1.5748115e-04
0.0466741      	1.5768855e-04
0.04671        	1.5789582e-04
0.0467459      	1.5810295e-04
0.0467817      	1.5830994e-04
0.0468174      	1.5851679e-04
0.0468531      	1.5872350e-04
0.0468888      	1.5893007e-04
0.0469244      	1.5913651e-04
0.04696        	1.5934281e-04
0.0469955      	1.5954898e-04
0.047031       	1.5975529e-04
0.0470664      	1.5996151e-04
0.0471018      	1.6016759e-04
0.0471371      	1.6037354e-04
0.0471724      	1.6057934e-04
0.0472076      	1.6078502e-04
0.0472428      	1.6099056e-04
0.047278       	1.6119597e-04
0.0473131      	1.6140124e-04
0.0473482      	1.6160638e-04
0.0473832      	1.6181139e-04
0.0474182      	1.6201626e-04
0.0474531      	1.6222100e-04
0.047488       	1.6242562e-04
0.0475229      	1.6263009e-04
0.0475577      	1.6283444e-04
0.0475924      	1.6303865e-04
0.0476271      	1.6324274e-04
0.0476618      	1.6344669e-04
0.0476964      	1.6365052e-04
0.047731       	1.6385421e-04
0.0477656      	1.6405778e-04
0.0478001      	1.6426121e-04
0.0478345      	1.6446452e-04
0.0478689      	1.6466770e-04
0.0479033      	1.6487075e-04
0.0479377      	1.6507367e-04
0.0479719      	1.6527647e-04
0.0480062      	1.6547914e-04
0.0480404      	1.6568168e-04
0.0480746      	1.6588409e-04
0.0481087      	1.6608639e-04
0.0481428      	1.6628855e-04
0.0481768      	1.6649059e-04
0.0482108      	1.6669250e-04
0.0482448      	1.6689429e-04
0.0482787      	1.6709595e-04
0.0483125      	1.6729749e-04
0.0483464      	1.6749890e-04
0.0483802      	1.6770020e-04
0.0484139      	1.6790136e-04
0.0484476      	1.6810241e-04
0.0484813      	1.6830333e-04
0.0485149      	1.6850413e-04
0.0485485      	1.6870481e-04
0.0485821      	1.6890537e-04
0.0486156      	1.6910580e-04
0.0486491      	1.6930612e-04
0.0486825      	1.6950630e-04
0.0487159      	1.6970638e-04
0.0487493      	1.6990633e-04
0.0487826      	1.7010616e-04
0.0488159      	1.7030587e-04
0.0488491      	1.7050546e-04
0.0488823      	1.7070493e-04
0.0489155      	1.7090429e-04
0.0489486      	1.7110352e-04
0.0489817      	1.7130264e-04
0.0490147      	1.7150164e-04
0.0490477      	1.7170052e-04
0.0490807      	1.7189928e-04
0.0491136      	1.7209793e-04
0.0491465      	1.7229645e-04
0.0491794      	1.7249487e-04
0.0492122      	1.7269316e-04
0.0492449      	1.7289135e-04
0.0492777      	1.7308941e-04
0.0493104      	1.7328736e-04
0.0493431      	1.7348519e-04
0.0493757      	1.7368291e-04
0.0494083      	1.7388051e-04
0.0494408      	1.7407800e-04
0.0494734      	1.7427537e-04
0.0495058      	1.7447263e-04
0.0495383      	1.7466978e-04
0.0495707      	1.7486681e-04
0.0496031      	1.7506373e-04
0.0496354      	1.7526054e-04
0.0496677      	1.7545723e-04
0.0497         	1.7565382e-04
0.0497322      	1.7585028e-04
0.0497644      	1.7604664e-04
0.0497965      	1.7624289e-04
0.0498287      	1.7643902e-04
0.0498607      	1.7663504e-04
0.0498928      	1.7683096e-04
0.0499248      	1.7702676e-04
0.0499568      	1.7722245e-04
0.0499887      	1.7741803e-04
0.0500206      	1.7754079e-04
0.0500525      	1.7762378e-04
0.0500844      	1.7770672e-04
0.0501162      	1.7778961e-04
0.0501481      	1.7787247e-04
0.0501799      	1.7795528e-04
0.0502117      	1.7803805e-04
0.0502435      	1.7812078e-04
0.0502753      	1.7820348e-04
0.0503071      	1.7828613e-04
0.0503388      	1.7836875e-04
0.0503706      	1.7845132e-04
0.0504023      	1.7853386e-04
0.050434       	1.7861635e-04
0.0504657      	1.7869882e-04
0.0504974      	1.7878124e-04
0.0505291      	1.7886363e-04
0.0505607      	1.7894597e-04
0.0505924      	1.7902828e-04
0.050624       	1.7911055e-04
0.0506556      	1.7919278e-04
0.0506872      	1.7927498e-04
0.0507188      	1.7935713e-04
0.0507503      	1.7943925e-04
0.0507819      	1.7952133e-04
0.0508134      	1.7960337e-04
0.050845       	1.7968538e-04
0.0508765      	1.7976734e-04
0.050908       	1.7984927e-04
0.0509395      	1.7993116e-04
0.0509709      	1.8001301e-04
0.0510024      	1.8009484e-04
0.0510338      	1.8017693e-04
0.0510652      	1.8025897e-04
0.0510967      	1.8034097e-04
0.0511281      	1.8042294e-04
0.0511594      	1.8050486e-04
0.0511908      	1.8058675e-04
0.0512222      	1.8066860e-04
0.0512535      	1.8075041e-04
0.0512848      	1.8083218e-04
0.0513162      	1.8091391e-04
0.0513475      	1.8099560e-04
0.0513788      	1.8107725e-04
0.05141        	1.8115887e-04
0.0514413      	1.8124044e-04
0.0514725      	1.8132198e-04
0.0515038      	1.8140347e-04
0.051535       	1.8148493e-04
0.0515662      	1.8156635e-04
0.0515974      	1.8164773e-04
0.0516286      	1.8172907e-04
0.0516597      	1.8181037e-04
0.0516909      	1.8189163e-04
0.051722       	1.8197285e-04
0.0517531      	1.8205403e-04
0.0517842      	1.8213518e-04
0.0518153      	1.8221628e-04
0.0518464      	1.8229735e-04
0.0518775      	1.8237837e-04
0.0519085      	1.8245936e-04
0.0519396      	1.8254031e-04
0.0519706      	1.8262122e-04
0.0520016      	1.8270208e-04
0.0520326      	1.8278291e-04
0.0520636      	1.8286370e-04
0.0520946      	1.8294445e-04
0.0521255      	1.8302516e-04
0.0521565      	1.8310583e-04
0.0521874      	1.8318646e-04
0.0522183      	1.8326706e-04
0.0522492      	1.8334761e-04
0.0522801      	1.8342813e-04
0.052311       	1.8350860e-04
0.0523419      	1.8358904e-04
0.0523727      	1.8366943e-04
0.0524036      	1.8374979e-04
0.0524344      	1.8383011e-04
0.0524652      	1.8391039e-04
0.052496       	1.8399063e-04
0.0525268      	1.8407083e-04
0.0525576      	1.8415099e-04
0.0525883      	1.8423111e-04
0.0526191      	1.8431120e-04
0.0526498      	1.8439124e-04
0.0526805      	1.8447125e-04
0.0527112      	1.8455121e-04
0.0527419      	1.8463114e-04
0.0527726      	1.8471103e-04
0.0528033      	1.8479088e-04
0.0528339      	1.8487069e-04
0.0528646      	1.8495046e-04
0.0528952      	1.8503020e-04
0.0529258      	1.8510989e-04
0.0529564      	1.8518955e-04
0.052987       	1.8526917e-04
0.0530176      	1.8534875e-04
0.0530482      	1.8542829e-04
0.0530787      	1.8550779e-04
0.0531092      	1.8558725e-04
0.0531398      	1.8566668e-04
0.0531703      	1.8574606e-04
0.0532008      	1.8582541e-04
0.0532313      	1.8590472e-04
0.0532617      	1.8598400e-04
0.0532922      	1.8606323e-04
0.0533227      	1.8614243e-04
0.0533531      	1.8622158e-04
0.0533835      	1.8630070e-04
0.0534139      	1.8637978e-04
0.0534443      	1.8645883e-04
0.0534747      	1.8653783e-04
0.0535051      	1.8661681e-04
0.0535354      	1.8669573e-04
0.0535658      	1.8677463e-04
0.0535961      	1.8685348e-04
0.0536264      	1.8693230e-04
0.0536567      	1.8701108e-04
0.053687       	1.8708983e-04
0.0537173      	1.8716853e-04
0.0537476      	1.8724720e-04
0.0537779      	1.8732583e-04
0.0538081      	1.8740443e-04
0.0538383      	1.8748298e-04
0.0538686      	1.8756150e-04
0.0538988      	1.8763998e-04
0.053929       	1.8771843e-04
0.0539591      	1.8779684e-04
0.0539893      	1.8787521e-04
0.0540195      	1.8795336e-04
0.0540496      	1.8803136e-04
0.0540797      	1.8810933e-04
0.0541099      	1.8818726e-04
0.05414        	1.8826516e-04
0.0541701      	1.8834302e-04
0.0542002      	1.8842084e-04
0.0542302      	1.8849863e-04
0.0542603      	1.8857638e-04
0.0542903      	1.8865410e-04
0.0543204      	1.8873177e-04
0.0543504      	1.8880942e-04
0.0543804      	1.8888703e-04
0.0544104      	1.8896460e-04
0.0544404      	1.8904214e-04
0.0544704      	1.8911964e-04
0.0545003      	1.8919710e-04
0.0545303      	1.8927454e-04
0.0545602      	1.8935193e-04
0.0545901      	1.8942929e-04
0.0546201      	1.8950662e-04
0.05465        	1.8958391e-04
0.0546798      	1.8966116e-04
0.0547097      	1.8973839e-04
0.0547396      	1.8981557e-04
0.0547694      	1.8989272e-04
0.0547993      	1.8996984e-04
0.0548291      	1.9004692e-04
0.0548589      	1.9012397e-04
0.0548887      	1.9020098e-04
0.0549185      	1.9027796e-04
0.0549483      	1.9035490e-04
0.0549781      	1.9043181e-04
0.0550078      	1.9050877e-04
0.0550376      	1.9058590e-04
0.0550673      	1.9066300e-04
0.055097       	1.9074006e-04
0.0551267      	1.9081709e-04
0.0551564      	1.9089408e-04
0.0551861      	1.9097105e-04
0.0552158      	1.9104797e-04
0.0552455      	1.9112487e-04
0.0552751      	1.9120173e-04
0.0553048      	1.9127856e-04
0.0553344      	1.9135535e-04
0.055364       	1.9143211e-04
0.0553936      	1.9150883e-04
0.0554232      	1.9158553e-04
0.0554528      	1.9166219e-04
0.0554823      	1.9173882e-04
0.0555119      	1.9181541e-04
0.0555414      	1.9189197e-04
0.055571       	1.9196850e-04
0.0556005      	1.9204499e-04
0.05563        	1.9212145e-04
0.0556595      	1.9219788e-04
0.055689       	1.9227428e-04
0.0557185      	1.9235064e-04
0.0557479      	1.9242697e-04
0.0557774      	1.9250327e-04
0.0558068      	1.9257954e-04
0.0558363      	1.9265577e-04
0.0558657      	1.9273197e-04
0.0558951      	1.9280814e-04
0.0559245      	1.9288428e-04
0.0559539      	1.9296039e-04
0.0559832      	1.9303646e-04
0.0560126      	1.9311250e-04
0.0560419      	1.9318851e-04
0.0560713      	1.9326449e-04
0.0561006      	1.9334043e-04
0.0561299      	1.9341635e-04
0.0561592      	1.9349223e-04
0.0561885      	1.9356809e-04
0.0562178      	1.9364390e-04
0.0562471      	1.9371969e-04
0.0562763      	1.9379545e-04
0.0563056      	1.9387118e-04
0.0563348      	1.9394687e-04
0.056364       	1.9402254e-04
0.0563932      	1.9409817e-04
0.0564224      	1.9417377e-04
0.0564516      	1.9424934e-04
0.0564808      	1.9432489e-04
0.05651        	1.9440040e-04
0.0565391      	1.9447588e-04
0.0565683      	1.9455132e-04
0.0565974      	1.9462674e-04
0.0566265      	1.9470213e-04
0.0566556      	1.9477749e-04
0.0566847      	1.9485282e-04
0.0567138      	1.9492811e-04
0.0567429      	1.9500338e-04
0.056772       	1.9507862e-04
0.056801       	1.9515382e-04
0.0568301      	1.9522900e-04
0.0568591      	1.9530415e-04
0.0568881      	1.9537927e-04
0.0569171      	1.9545435e-04
0.0569461      	1.9552941e-04
0.0569751      	1.9560444e-04
0.0570041      	1.9567944e-04
0.0570331      	1.9575440e-04
0.057062       	1.9582934e-04
0.057091       	1.9590425e-04
0.0571199      	1.9597914e-04
0.0571488      	1.9605398e-04
0.0571777      	1.9612881e-04
0.0572066      	1.9620360e-04
0.0572355      	1.9627836e-04
0.0572644      	1.9635310e-04
0.0572933      	1.9642781e-04
0.0573221      	1.9650248e-04
0.057351       	1.9657713e-04
0.0573798      	1.9665175e-04
0.0574086      	1.9672634e-04
0.0574374      	1.9680090e-04
0.0574662      	1.9687543e-04
0.057495       	1.9694994e-04
0.0575238      	1.9702441e-04
0.0575526      	1.9709886e-04
0.0575813      	1.9717328e-04
0.0576101      	1.9724767e-04
0.0576388      	1.9732203e-04
0.0576676      	1.9739637e-04
0.0576963      	1.9747067e-04
0.057725       	1.9754495e-04
0.0577537      	1.9761920e-04
0.0577824      	1.9769342e-04
0.057811       	1.9776762e-04
0.0578397      	1.9784178e-04
0.0578683      	1.9791592e-04
0.057897       	1.9799003e-04
0.0579256      	1.9806411e-04
0.0579542      	1.9813817e-04
0.0579828      	1.9821220e-04
0.0580114      	1.9828608e-04
0.05804        	1.9835978e-04
0.0580686      	1.9843344e-04
0.0580972      	1.9850708e-04
0.0581257      	1.9858069e-04
0.0581543      	1.9865428e-04
0.0581828      	1.9872783e-04
0.0582113      	1.9880136e-04
0.0582399      	1.9887486e-04
0.0582684      	1.9894834e-04
0.0582969      	1.9902179e-04
0.0583253      	1.9909521e-04
0.0583538      	1.9916860e-04
0.0583823      	1.9924198e-04
0.0584107      	1.9931531e-04
0.0584392      	1.9938863e-04
0.0584676      	1.9946192e-04
0.058496       	1.9953518e-04
0.0585244      	1.9960842e-04
0.0585528      	1.9968163e-04
0.0585812      	1.9975481e-04
0.0586096      	1.9982797e-04
0.058638       	1.9990109e-04
0.0586663      	1.9997420e-04
0.0586947      	2.0004727e-04
0.058723       	2.0012033e-04
0.0587513      	2.0019335e-04
0.0587797      	2.0026635e-04
0.058808       	2.0033932e-04
0.0588363      	2.0041227e-04
0.0588646      	2.0048519e-04
0.0588928      	2.0055809e-04
0.0589211      	2.0063095e-04
0.0589494      	2.0070380e-04
0.0589776      	2.0077661e-04
0.0590058      	2.0084946e-04
0.0590341      	2.0092250e-04
0.0590623      	2.0099552e-04
0.0590905      	2.0106851e-04
0.0591187      	2.0114147e-04
0.0591469      	2.0121441e-04
0.059175       	2.0128732e-04
0.0592032      	2.0136021e-04
0.0592314      	2.0143307e-04
0.0592595      	2.0150590e-04
0.0592876      	2.0157871e-04
0.0593158      	2.0165149e-04
0.0593439      	2.0172426e-04
0.059372       	2.0179699e-04
0.0594001      	2.0186970e-04
0.0594282      	2.0194238e-04
0.0594562      	2.0201503e-04
0.0594843      	2.0208766e-04
0.0595124      	2.0216027e-04
0.0595404      	2.0223285e-04
0.0595684      	2.0230541e-04
0.0595965      	2.0237794e-04
0.0596245      	2.0245044e-04
0.0596525      	2.0252292e-04
0.0596805      	2.0259538e-04
0.0597085      	2.0266781e-04
0.0597364      	2.0274021e-04
0.0597644      	2.0281259e-04
0.0597924      	2.0288495e-04
0.0598203      	2.0295728e-04
0.0598482      	2.0302959e-04
0.0598762      	2.0310186e-04
0.0599041      	2.0317412e-04
0.059932       	2.0324635e-04
0.0599599      	2.0331856e-04
0.0599878      	2.0339074e-04
0.0600156      	2.0346290e-04
0.0600435      	2.0353503e-04
0.0600714      	2.0360714e-04
0.0600992      	2.0367922e-04
0.0601271      	2.0375128e-04
0.0601549      	2.0382331e-04
0.0601827      	2.0389532e-04
0.0602105      	2.0396731e-04
0.0602383      	2.0403927e-04
0.0602661      	2.0411120e-04
0.0602939      	2.0418312e-04
0.0603216      	2.0425500e-04
0.0603494      	2.0432687e-04
0.0603772      	2.0439871e-04
0.0604049      	2.0447052e-04
0.0604326      	2.0454231e-04
0.0604603      	2.0461408e-04
0.0604881      	2.0468582e-04
0.0605158      	2.0475754e-04
0.0605434      	2.0482923e-04
0.0605711      	2.0490090e-04
0.0605988      	2.0497255e-04
0.0606265      	2.0504417e-04
0.0606541      	2.0511577e-04
0.0606818      	2.0518734e-04
0.0607094      	2.0525889e-04
0.060737       	2.0533042e-04
0.0607646      	2.0540192e-04
0.0607922      	2.0547340e-04
0.0608198      	2.0554486e-04
0.0608474      	2.0561629e-04
0.060875       	2.0568769e-04
0.0609026      	2.0575908e-04
0.0609301      	2.0583044e-04
0.0609577      	2.0590178e-04
0.0609852      	2.0597309e-04
0.0610127      	2.0604438e-04