# Region type : patch outlet
# Faces        : 34923
# Area         : 6.0186191e-04
# Scale factor : 1.0000000e+00
# Time         	sum(phi)
6e-05          	6.1795231e-08
0.000132       	1.3642144e-07
0.0002184      	2.2666550e-07
0.00032208     	3.3593986e-07
0.000446496    	4.6849537e-07
0.000595795    	6.2959457e-07
0.000774954    	8.2586451e-07
0.000989945    	1.0656152e-06
0.00124793     	1.3595080e-06
0.00155752     	1.7210261e-06
0.00192903     	2.1676642e-06
0.00237483     	2.7219044e-06
0.0029098      	3.4135547e-06
0.00355176     	4.2818147e-06
0.00429765     	5.3434570e-06
0.00475382     	6.0204793e-06
0.00497048     	6.3494772e-06
0.00518408     	6.6782676e-06
0.00542151     	7.0491749e-06
0.00568516     	7.4676737e-06
0.00595414     	7.9019334e-06
0.0062144      	8.3292657e-06
0.00646879     	8.7536857e-06
0.00672414     	9.1862492e-06
0.00698347     	9.6323647e-06
0.0072456      	1.0089791e-05
0.0075082      	1.0555010e-05
0.00777027     	1.1026127e-05
0.00803213     	1.1503837e-05
0.00829441     	1.1989146e-05
0.00855734     	1.2482658e-05
0.00882083     	1.2984099e-05
0.00908463     	1.3493342e-05
0.00934861     	1.4010165e-05
0.00961272     	1.4534347e-05
0.00987701     	1.5065827e-05
0.0101415      	1.5604470e-05
0.0104061      	1.6150122e-05
0.0106708      	1.6703084e-05
0.0109356      	1.7263213e-05
0.0112005      	1.7830639e-05
0.0114655      	1.8405246e-05
0.0117307      	1.8987153e-05
0.0119958      	1.9576221e-05
0.0122611      	2.0173199e-05
0.0125265      	2.0777365e-05
0.0127919      	2.1388840e-05
0.0130543      	2.2000085e-05
0.0133099      	2.2601680e-05
0.0135591      	2.3194653e-05
0.0138025      	2.3779661e-05
0.01404        	2.4356136e-05
0.0142718      	2.4925035e-05
0.0144983      	2.5486152e-05
0.0147199      	2.6039982e-05
0.0149367      	2.6586795e-05
0.0151492      	2.7126576e-05
0.0153574      	2.7659802e-05
0.0155616      	2.8187034e-05
0.0157619      	2.8708445e-05
0.0159587      	2.9224365e-05
0.016152       	2.9734933e-05
0.0163419      	3.0240444e-05
0.0165288      	3.0741010e-05
0.0167125      	3.1236896e-05
0.0168934      	3.1728195e-05
0.0170714      	3.2215382e-05
0.0172468      	3.2698646e-05
0.0174196      	3.3177848e-05
0.0175899      	3.3653048e-05
0.0177578      	3.4124447e-05
0.0179234      	3.4592092e-05
0.0180867      	3.5055861e-05
0.0182479      	3.5515833e-05
0.0184071      	3.5972449e-05
0.0185642      	3.6425740e-05
0.0187193      	3.6875865e-05
0.0188726      	3.7322844e-05
0.019024       	3.7766917e-05
0.0191736      	3.8208481e-05
0.0193216      	3.8647200e-05
0.0194678      	3.9083085e-05
0.0196124      	3.9516267e-05
0.0197555      	3.9946752e-05
0.019897       	4.0374666e-05
0.020037       	4.0799863e-05
0.0201755      	4.1222208e-05
0.0203126      	4.1642102e-05
0.0204484      	4.2059658e-05
0.0205828      	4.2474870e-05
0.0207159      	4.2887846e-05
0.0208477      	4.3298577e-05
0.0209783      	4.3707167e-05
0.0211076      	4.4113604e-05
0.0212358      	4.4517987e-05
0.0213628      	4.4920304e-05
0.0214886      	4.5320648e-05
0.0216134      	4.5719005e-05
0.021737       	4.6115466e-05
0.0218597      	4.6510014e-05
0.0219812      	4.6902738e-05
0.0221018      	4.7294059e-05
0.0222213      	4.7683699e-05
0.0223399      	4.8071560e-05
0.0224576      	4.8457722e-05
0.0225742      	4.8842166e-05
0.02269        	4.9224971e-05
0.0228049      	4.9606115e-05
0.0229189      	4.9985675e-05
0.023032       	5.0363486e-05
0.0231443      	5.0739402e-05
0.0232558      	5.1113766e-05
0.0233664      	5.1486651e-05
0.0234763      	5.1858032e-05
0.0235853      	5.2227981e-05
0.0236936      	5.2596474e-05
0.0238011      	5.2963577e-05
0.0239079      	5.3329267e-05
0.024014       	5.3693610e-05
0.0241193      	5.4056582e-05
0.0242239      	5.4418246e-05
0.0243279      	5.4778577e-05
0.0244311      	5.5137639e-05
0.0245337      	5.5495406e-05
0.0246356      	5.5851939e-05
0.0247369      	5.6207212e-05
0.0248375      	5.6561286e-05
0.0249375      	5.6914134e-05
0.0250369      	5.7265996e-05
0.0251357      	5.7616968e-05
0.0252339      	5.7966802e-05
0.0253315      	5.8315472e-05
0.0254285      	5.8663033e-05
0.0255249      	5.9009459e-05
0.0256208      	5.9354805e-05
0.0257161      	5.9699044e-05
0.0258108      	6.0042231e-05
0.0259051      	6.0384337e-05
0.0259987      	6.0725417e-05
0.0260919      	6.1064974e-05
0.0261846      	6.1403525e-05
0.0262767      	6.1741049e-05
0.0263683      	6.2077597e-05
0.0264595      	6.2413141e-05
0.0265501      	6.2747732e-05
0.0266403      	6.3081343e-05
0.02673        	6.3414022e-05
0.0268192      	6.3745742e-05
0.0269079      	6.4076553e-05
0.0269962      	6.4406425e-05
0.0270841      	6.4735853e-05
0.0271715      	6.5064381e-05
0.0272584      	6.5392038e-05
0.027345       	6.5718794e-05
0.0274311      	6.6044698e-05
0.0275167      	6.6369721e-05
0.027602       	6.6693909e-05
0.0276868      	6.7017234e-05
0.0277713      	6.7339742e-05
0.0278553      	6.7661405e-05
0.0279389      	6.7982267e-05
0.0280222      	6.8302179e-05
0.028105       	6.8620974e-05
0.0281875      	6.8938959e-05
0.0282696      	6.9256176e-05
0.0283513      	6.9572599e-05
0.0284326      	6.9888269e-05
0.0285136      	7.0203161e-05
0.0285942      	7.0517315e-05
0.0286744      	7.0830704e-05
0.0287543      	7.1143370e-05
0.0288339      	7.1455285e-05
0.0289131      	7.1766491e-05
0.0289919      	7.2076960e-05
0.0290705      	7.2386732e-05
0.0291486      	7.2695781e-05
0.0292265      	7.3004147e-05
0.029304       	7.3311802e-05
0.0293812      	7.3618786e-05
0.0294581      	7.3925071e-05
0.0295346      	7.4230698e-05
0.0296109      	7.4535639e-05
0.0296868      	7.4839932e-05
0.0297624      	7.5143551e-05
0.0298378      	7.5446534e-05
0.0299128      	7.5748854e-05
0.0299875      	7.6050548e-05
0.0300619      	7.6351955e-05
0.0301361      	7.6652819e-05
0.0302099      	7.6953041e-05
0.0302834      	7.7252657e-05
0.0303567      	7.7551642e-05
0.0304297      	7.7850031e-05
0.0305024      	7.8147798e-05
0.0305748      	7.8444980e-05
0.030647       	7.8741550e-05
0.0307189      	7.9037544e-05
0.0307905      	7.9332936e-05
0.0308618      	7.9627760e-05
0.0309329      	7.9921992e-05
0.0310038      	8.0215643e-05
0.0310743      	8.0508306e-05
0.0311446      	8.0800419e-05
0.0312147      	8.1091960e-05
0.0312845      	8.1382960e-05
0.0313541      	8.1673396e-05
0.0314234      	8.1963300e-05
0.0314924      	8.2252648e-05
0.0315613      	8.2541472e-05
0.0316298      	8.2829748e-05
0.0316982      	8.3117508e-05
0.0317663      	8.3404728e-05
0.0318342      	8.3691440e-05
0.0319018      	8.3977620e-05
0.0319692      	8.4263298e-05
0.0320364      	8.4548452e-05
0.0321034      	8.4833112e-05
0.0321701      	8.5117255e-05
0.0322366      	8.5400911e-05
0.0323029      	8.5684057e-05
0.032369       	8.5966723e-05
0.0324348      	8.6248886e-05
0.0325005      	8.6530576e-05
0.0325659      	8.6811770e-05
0.0326311      	8.7092497e-05
0.0326961      	8.7372735e-05
0.0327609      	8.7652513e-05
0.0328255      	8.7931808e-05
0.0328899      	8.8210649e-05
0.0329541      	8.8489013e-05
0.0330181      	8.8767046e-05
0.0330819      	8.9044904e-05
0.0331454      	8.9322319e-05
0.0332088      	8.9599269e-05
0.033272       	8.9875783e-05
0.033335       	9.0151836e-05
0.0333978      	9.0427459e-05
0.0334604      	9.0702628e-05
0.0335229      	9.0977372e-05
0.0335851      	9.1251668e-05
0.0336472      	9.1525544e-05
0.033709       	9.1798977e-05
0.0337707      	9.2071997e-05
0.0338322      	9.2344579e-05
0.0338935      	9.2616752e-05
0.0339547      	9.2888493e-05
0.0340156      	9.3159726e-05
0.0340764      	9.3430232e-05
0.034137       	9.3700340e-05
0.0341974      	9.3970027e-05
0.0342577      	9.4239322e-05
0.0343178      	9.4508200e-05
0.0343777      	9.4776690e-05
0.0344375      	9.5044770e-05
0.034497       	9.5312466e-05
0.0345564      	9.5579755e-05
0.0346157      	9.5846666e-05
0.0346748      	9.6113176e-05
0.0347337      	9.6379311e-05
0.0347925      	9.6645049e-05
0.034851       	9.6910418e-05
0.0349095      	9.7175394e-05
0.0349678      	9.7440004e-05
0.0350259      	9.7704403e-05
0.0350838      	9.7968661e-05
0.0351416      	9.8232534e-05
0.0351993      	9.8496049e-05
0.0352568      	9.8759184e-05
0.0353141      	9.9021965e-05
0.0353713      	9.9284370e-05
0.0354284      	9.9546425e-05
0.0354853      	9.9808108e-05
0.035542       	1.0006945e-04
0.0355986      	1.0033041e-04
0.035655       	1.0059104e-04
0.0357113      	1.0085130e-04
0.0357675      	1.0111123e-04
0.0358235      	1.0137079e-04
0.0358794      	1.0163002e-04
0.0359351      	1.0188889e-04
0.0359907      	1.0214744e-04
0.0360462      	1.0240530e-04
0.0361015      	1.0266277e-04
0.0361566      	1.0291990e-04
0.0362117      	1.0317670e-04
0.0362666      	1.0343315e-04
0.0363213      	1.0368929e-04
0.0363759      	1.0394508e-04
0.0364304      	1.0420056e-04
0.0364848      	1.0445570e-04
0.036539       	1.0471053e-04
0.0365931      	1.0496502e-04
0.0366471      	1.0521921e-04
0.0367009      	1.0547306e-04
0.0367546      	1.0572660e-04
0.0368082      	1.0597982e-04
0.0368616      	1.0623274e-04
0.0369149      	1.0648533e-04
0.0369681      	1.0673761e-04
0.0370212      	1.0698958e-04
0.0370741      	1.0724125e-04
0.037127       	1.0749260e-04
0.0371797      	1.0774366e-04
0.0372322      	1.0799440e-04
0.0372847      	1.0824485e-04
0.037337       	1.0849499e-04
0.0373892      	1.0874484e-04
0.0374413      	1.0899438e-04
0.0374933      	1.0924363e-04
0.0375451      	1.0949258e-04
0.0375969      	1.0974125e-04
0.0376485      	1.0998961e-04
0.0377         	1.1023769e-04
0.0377514      	1.1048547e-04
0.0378026      	1.1073297e-04
0.0378538      	1.1098017e-04
0.0379048      	1.1122710e-04
0.0379558      	1.1147374e-04
0.0380066      	1.1172015e-04
0.0380573      	1.1196659e-04
0.0381079      	1.1221277e-04
0.0381584      	1.1245865e-04
0.0382088      	1.1270427e-04
0.038259       	1.1294960e-04
0.0383092      	1.1319466e-04
0.0383592      	1.1343944e-04
0.0384092      	1.1368395e-04
0.038459       	1.1392818e-04
0.0385087      	1.1417215e-04
0.0385583      	1.1441584e-04
0.0386079      	1.1465927e-04
0.0386573      	1.1490243e-04
0.0387066      	1.1514532e-04
0.0387558      	1.1538794e-04
0.0388049      	1.1563031e-04
0.0388539      	1.1587241e-04
0.0389028      	1.1611425e-04
0.0389516      	1.1635582e-04
0.0390003      	1.1659714e-04
0.0390488      	1.1683783e-04
0.0390973      	1.1707826e-04
0.0391457      	1.1731844e-04
0.039194       	1.1755836e-04
0.0392422      	1.1779803e-04
0.0392903      	1.1803745e-04
0.0393383      	1.1827661e-04
0.0393862      	1.1851553e-04
0.039434       	1.1875419e-04
0.0394817      	1.1899261e-04
0.0395293      	1.1923077e-04
0.0395769      	1.1946870e-04
0.0396243      	1.1970638e-04
0.0396716      	1.1994382e-04
0.0397189      	1.2018100e-04
0.039766       	1.2041796e-04
0.0398131      	1.2065466e-04
0.03986        	1.2089114e-04
0.0399069      	1.2112736e-04
0.0399537      	1.2136336e-04
0.0400004      	1.2159913e-04
0.040047       	1.2183720e-04
0.0400935      	1.2207503e-04
0.0401399      	1.2231263e-04
0.0401862      	1.2254998e-04
0.0402324      	1.2278710e-04
0.0402786      	1.2302398e-04
0.0403246      	1.2326063e-04
0.0403706      	1.2349704e-04
0.0404165      	1.2373323e-04
0.0404623      	1.2396918e-04
0.040508       	1.2420490e-04
0.0405536      	1.2444039e-04
0.0405992      	1.2467566e-04
0.0406446      	1.2491069e-04
0.04069        	1.2514550e-04
0.0407353      	1.2538008e-04
0.0407805      	1.2561444e-04
0.0408256      	1.2584856e-04
0.0408706      	1.2608248e-04
0.0409155      	1.2631616e-04
0.0409604      	1.2654962e-04
0.0410052      	1.2678286e-04
0.0410499      	1.2701589e-04
0.0410945      	1.2724869e-04
0.041139       	1.2748128e-04
0.0411835      	1.2771364e-04
0.0412279      	1.2794579e-04
0.0412721      	1.2817772e-04
0.0413164      	1.2840944e-04
0.0413605      	1.2864094e-04
0.0414045      	1.2887224e-04
0.0414485      	1.2910331e-04
0.0414924      	1.2933418e-04
0.0415362      	1.2956483e-04
0.04158        	1.2979528e-04
0.0416236      	1.3002551e-04
0.0416672      	1.3025554e-04
0.0417107      	1.3048535e-04
0.0417542      	1.3071496e-04
0.0417975      	1.3094436e-04
0.0418408      	1.3117356e-04
0.041884       	1.3140255e-04
0.0419271      	1.3163134e-04
0.0419702      	1.3185992e-04
0.0420132      	1.3208820e-04
0.0420561      	1.3231602e-04
0.0420989      	1.3254365e-04
0.0421417      	1.3277107e-04
0.0421843      	1.3299830e-04
0.042227       	1.3322533e-04
0.0422695      	1.3345216e-04
0.042312       	1.3367879e-04
0.0423544      	1.3390522e-04
0.0423967      	1.3413146e-04
0.0424389      	1.3435751e-04
0.0424811      	1.3458335e-04
0.0425232      	1.3480901e-04
0.0425653      	1.3503447e-04
0.0426073      	1.3525974e-04
0.0426492      	1.3548481e-04
0.042691       	1.3570970e-04
0.0427328      	1.3593439e-04
0.0427745      	1.3615890e-04
0.0428161      	1.3638321e-04
0.0428576      	1.3660734e-04
0.0428991      	1.3683127e-04
0.0429405      	1.3705503e-04
0.0429819      	1.3727859e-04
0.0430232      	1.3750216e-04
0.0430644      	1.3772570e-04
0.0431056      	1.3794906e-04
0.0431467      	1.3817222e-04
0.0431877      	1.3839521e-04
0.0432286      	1.3861800e-04
0.0432695      	1.3884063e-04
0.0433104      	1.3906306e-04
0.0433511      	1.3928531e-04
0.0433918      	1.3950738e-04
0.0434324      	1.3972928e-04
0.043473       	1.3995099e-04
0.0435135      	1.4017252e-04
0.0435539      	1.4039387e-04
0.0435943      	1.4061505e-04
0.0436346      	1.4083605e-04
0.0436749      	1.4105687e-04
0.0437151      	1.4127751e-04
0.0437552      	1.4149798e-04
0.0437952      	1.4171827e-04
0.0438352      	1.4193839e-04
0.0438752      	1.4215833e-04
0.0439151      	1.4237811e-04
0.0439549      	1.4259770e-04
0.0439946      	1.4281713e-04
0.0440343      	1.4303638e-04
0.0440739      	1.4325546e-04
0.0441135      	1.4347437e-04
0.044153       	1.4369311e-04
0.0441925      	1.4391168e-04
0.0442319      	1.4413008e-04
0.0442712      	1.4434831e-04
0.0443105      	1.4456637e-04
0.0443497      	1.4478426e-04
0.0443888      	1.4500200e-04
0.0444279      	1.4521955e-04
0.044467       	1.4543695e-04
0.0445059      	1.4565418e-04
0.0445449      	1.4587125e-04
0.0445837      	1.4608814e-04
0.0446225      	1.4630488e-04
0.0446613      	1.4652145e-04
0.0447         	1.4673786e-04
0.0447386      	1.4695410e-04
0.0447772      	1.4717019e-04
0.0448157      	1.4738611e-04
0.0448542      	1.4760187e-04
0.0448926      	1.4781747e-04
0.0449309      	1.4803291e-04
0.0449692      	1.4824818e-04
0.0450075      	1.4846331e-04
0.0450457      	1.4867827e-04
0.0450838      	1.4889307e-04
0.0451219      	1.4910771e-04
0.0451599      	1.4932220e-04
0.0451979      	1.4953653e-04
0.0452358      	1.4975071e-04
0.0452736      	1.4996472e-04
0.0453114      	1.5017859e-04
0.0453492      	1.5039229e-04
0.0453869      	1.5060585e-04
0.0454245      	1.5081924e-04
0.0454621      	1.5103249e-04
0.0454997      	1.5124558e-04
0.0455371      	1.5145852e-04
0.0455746      	1.5167130e-04
0.045612       	1.5188394e-04
0.0456493      	1.5209642e-04
0.0456866      	1.5230875e-04
0.0457238      	1.5252093e-04
0.045761       	1.5273296e-04
0.0457981      	1.5294484e-04
0.0458351      	1.5315657e-04
0.0458722      	1.5336815e-04
0.0459091      	1.5357959e-04
0.0459461      	1.5379087e-04
0.0459829      	1.5400201e-04
0.0460197      	1.5421282e-04
0.0460565      	1.5442334e-04
0.0460932      	1.5463370e-04
0.0461299      	1.5484392e-04
0.0461665      	1.5505399e-04
0.0462031      	1.5526393e-04
0.0462396      	1.5547371e-04
0.0462761      	1.5568335e-04
0.0463125      	1.5589285e-04
0.0463489      	1.5610221e-04
0.0463852      	1.5631141e-04
0.0464215      	1.5652049e-04
0.0464577      	1.5672941e-04
0.0464939      	1.5693820e-04
0.04653        	1.5714684e-04
0.0465661      	1.5735535e-04
0.0466021      	1.5756370e-04
0.0466381      	1.5777193e-04
0.046674       	1.5798001e-04
0.0467099      	1.5818796e-04
0.0467458      	1.5839576e-04
0.0467816      	1.5860342e-04
0.0468173      	1.5881095e-04
0.046853       	1.5901834e-04
0.0468887      	1.5922559e-04
0.0469243      	1.5943270e-04
0.0469599      	1.5963968e-04
0.0469954      	1.5984652e-04
0.0470309      	1.6005351e-04
0.0470663      	1.6026040e-04
0.0471017      	1.6046716e-04
0.047137       	1.6067378e-04
0.0471723      	1.6088027e-04
0.0472075      	1.6108662e-04
0.0472428      	1.6129284e-04
0.0472779      	1.6149893e-04
0.047313       	1.6170487e-04
0.0473481      	1.6191070e-04
0.0473831      	1.6211638e-04
0.0474181      	1.6232193e-04
0.047453       	1.6252735e-04
0.0474879      	1.6273264e-04
0.0475228      	1.6293779e-04
0.0475576      	1.6314282e-04
0.0475923      	1.6334771e-04
0.047627       	1.6355248e-04
0.0476617      	1.6375711e-04
0.0476964      	1.6396162e-04
0.0477309      	1.6416599e-04
0.0477655      	1.6437024e-04
0.0478         	1.6457435e-04
0.0478344      	1.6477834e-04
0.0478689      	1.6498220e-04
0.0479032      	1.6518593e-04
0.0479376      	1.6538953e-04
0.0479719      	1.6559301e-04
0.0480061      	1.6579636e-04
0.0480403      	1.6599958e-04
0.0480745      	1.6620267e-04
0.0481086      	1.6640565e-04
0.0481427      	1.6660849e-04
0.0481767      	1.6681121e-04
0.0482107      	1.6701380e-04
0.0482447      	1.6721627e-04
0.0482786      	1.6741862e-04
0.0483125      	1.6762084e-04
0.0483463      	1.6782293e-04
0.0483801      	1.6802491e-04
0.0484138      	1.6822676e-04
0.0484476      	1.6842849e-04
0.0484812      	1.6863009e-04
0.0485149      	1.6883157e-04
0.0485485      	1.6903293e-04
0.048582       	1.6923417e-04
0.0486155      	1.6943529e-04
0.048649       	1.6963629e-04
0.0486824      	1.6983716e-04
0.0487158      	1.7003792e-04
0.0487492      	1.7023855e-04
0.0487825      	1.7043906e-04
0.0488158      	1.7063946e-04
0.048849       	1.7083973e-04
0.0488822      	1.7103989e-04
0.0489154      	1.7123993e-04
0.0489485      	1.7143984e-04
0.0489816      	1.7163965e-04
0.0490146      	1.7183933e-04
0.0490476      	1.7203889e-04
0.0490806      	1.7223834e-04
0.0491135      	1.7243767e-04
0.0491464      	1.7263688e-04
0.0491793      	1.7283598e-04
0.0492121      	1.7303496e-04
0.0492449      	1.7323383e-04
0.0492776      	1.7343257e-04
0.0493103      	1.7363121e-04
0.049343       	1.7382972e-04
0.0493756      	1.7402813e-04
0.0494082      	1.7422641e-04
0.0494408      	1.7442459e-04
0.0494733      	1.7462265e-04
0.0495058      	1.7482060e-04
0.0495382      	1.7501843e-04
0.0495706      	1.7521615e-04
0.049603       	1.7541375e-04
0.0496353      	1.7561125e-04
0.0496676      	1.7580862e-04
0.0496999      	1.7600590e-04
0.0497321      	1.7620305e-04
0.0497643      	1.7640010e-04
0.0497965      	1.7659703e-04
0.0498286      	1.7679385e-04
0.0498607      	1.7699056e-04
0.0498927      	1.7718716e-04
0.0499247      	1.7738365e-04
0.0499567      	1.7758003e-04
0.0499886      	1.7777629e-04
0.0500206      	1.7790003e-04
0.0500524      	1.7798371e-04
0.0500843      	1.7806734e-04
0.0501162      	1.7815092e-04
0.050148       	1.7823446e-04
0.0501798      	1.7831796e-04
0.0502116      	1.7840143e-04
0.0502434      	1.7848485e-04
0.0502752      	1.7856824e-04
0.050307       	1.7865158e-04
0.0503388      	1.7873489e-04
0.0503705      	1.7881815e-04
0.0504022      	1.7890139e-04
0.0504339      	1.7898458e-04
0.0504656      	1.7906774e-04
0.0504973      	1.7915085e-04
0.050529       	1.7923394e-04
0.0505606      	1.7931698e-04
0.0505923      	1.7939999e-04
0.0506239      	1.7948295e-04
0.0506555      	1.7956589e-04
0.0506871      	1.7964878e-04
0.0507187      	1.7973164e-04
0.0507503      	1.7981445e-04
0.0507818      	1.7989724e-04
0.0508134      	1.7997998e-04
0.0508449      	1.8006269e-04
0.0508764      	1.8014535e-04
0.0509079      	1.8022799e-04
0.0509394      	1.8031058e-04
0.0509708      	1.8039313e-04
0.0510023      	1.8047567e-04
0.0510337      	1.8055846e-04
0.0510652      	1.8064121e-04
0.0510966      	1.8072392e-04
0.051128       	1.8080659e-04
0.0511594      	1.8088922e-04
0.0511907      	1.8097182e-04
0.0512221      	1.8105437e-04
0.0512534      	1.8113689e-04
0.0512848      	1.8121937e-04
0.0513161      	1.8130181e-04
0.0513474      	1.8138422e-04
0.0513787      	1.8146658e-04
0.0514099      	1.8154891e-04
0.0514412      	1.8163119e-04
0.0514725      	1.8171345e-04
0.0515037      	1.8179565e-04
0.0515349      	1.8187783e-04
0.0515661      	1.8195996e-04
0.0515973      	1.8204205e-04
0.0516285      	1.8212411e-04
0.0516596      	1.8220613e-04
0.0516908      	1.8228810e-04
0.0517219      	1.8237004e-04
0.051753       	1.8245194e-04
0.0517842      	1.8253381e-04
0.0518153      	1.8261563e-04
0.0518463      	1.8269741e-04
0.0518774      	1.8277916e-04
0.0519085      	1.8286086e-04
0.0519395      	1.8294253e-04
0.0519705      	1.8302416e-04
0.0520015      	1.8310575e-04
0.0520325      	1.8318730e-04
0.0520635      	1.8326881e-04
0.0520945      	1.8335029e-04
0.0521255      	1.8343172e-04
0.0521564      	1.8351312e-04
0.0521873      	1.8359447e-04
0.0522183      	1.8367579e-04
0.0522492      	1.8375707e-04
0.0522801      	1.8383831e-04
0.0523109      	1.8391951e-04
0.0523418      	1.8400068e-04
0.0523727      	1.8408180e-04
0.0524035      	1.8416288e-04
0.0524343      	1.8424393e-04
0.0524651      	1.8432494e-04
0.0524959      	1.8440591e-04
0.0525267      	1.8448684e-04
0.0525575      	1.8456773e-04
0.0525883      	1.8464858e-04
0.052619       	1.8472940e-04
0.0526497      	1.8481017e-04
0.0526805      	1.8489091e-04
0.0527112      	1.8497161e-04
0.0527419      	1.8505227e-04
0.0527725      	1.8513289e-04
0.0528032      	1.8521348e-04
0.0528339      	1.8529402e-04
0.0528645      	1.8537453e-04
0.0528951      	1.8545500e-04
0.0529257      	1.8553543e-04
0.0529563      	1.8561582e-04
0.0529869      	1.8569617e-04
0.0530175      	1.8577649e-04
0.0530481      	1.8585677e-04
0.0530786      	1.8593701e-04
0.0531092      	1.8601721e-04
0.0531397      	1.8609737e-04
0.0531702      	1.8617750e-04
0.0532007      	1.8625759e-04
0.0532312      	1.8633764e-04
0.0532617      	1.8641765e-04
0.0532921      	1.8649762e-04
0.0533226      	1.8657756e-04
0.053353       	1.8665746e-04
0.0533834      	1.8673732e-04
0.0534138      	1.8681714e-04
0.0534442      	1.8689693e-04
0.0534746      	1.8697668e-04
0.053505       	1.8705639e-04
0.0535354      	1.8713607e-04
0.0535657      	1.8721571e-04
0.053596       	1.8729530e-04
0.0536264      	1.8737487e-04
0.0536567      	1.8745439e-04
0.053687       	1.8753388e-04
0.0537172      	1.8761333e-04
0.0537475      	1.8769275e-04
0.0537778      	1.8777212e-04
0.053808       	1.8785147e-04
0.0538383      	1.8793077e-04
0.0538685      	1.8801004e-04
0.0538987      	1.8808927e-04
0.0539289      	1.8816847e-04
0.0539591      	1.8824762e-04
0.0539892      	1.8832675e-04
0.0540194      	1.8840564e-04
0.0540495      	1.8848440e-04
0.0540797      	1.8856311e-04
0.0541098      	1.8864180e-04
0.0541399      	1.8872044e-04
0.05417        	1.8879906e-04
0.0542001      	1.8887763e-04
0.0542302      	1.8895617e-04
0.0542602      	1.8903467e-04
0.0542903      	1.8911314e-04
0.0543203      	1.8919157e-04
0.0543503      	1.8926997e-04
0.0543803      	1.8934833e-04
0.0544103      	1.8942666e-04
0.0544403      	1.8950495e-04
0.0544703      	1.8958321e-04
0.0545002      	1.8966143e-04
0.0545302      	1.8973962e-04
0.0545601      	1.8981777e-04
0.0545901      	1.8989589e-04
0.05462        	1.8997397e-04
0.0546499      	1.9005202e-04
0.0546798      	1.9013003e-04
0.0547096      	1.9020801e-04
0.0547395      	1.9028596e-04
0.0547694      	1.9036387e-04
0.0547992      	1.9044174e-04
0.054829       	1.9051958e-04
0.0548589      	1.9059739e-04
0.0548887      	1.9067516e-04
0.0549184      	1.9075290e-04
0.0549482      	1.9083061e-04
0.054978       	1.9090828e-04
0.0550078      	1.9098599e-04
0.0550375      	1.9106388e-04
0.0550672      	1.9114175e-04
0.055097       	1.9121957e-04
0.0551267      	1.9129736e-04
0.0551564      	1.9137512e-04
0.0551861      	1.9145285e-04
0.0552157      	1.9153054e-04
0.0552454      	1.9160820e-04
0.055275       	1.9168582e-04
0.0553047      	1.9176341e-04
0.0553343      	1.9184097e-04
0.0553639      	1.9191850e-04
0.0553935      	1.9199599e-04
0.0554231      	1.9207345e-04
0.0554527      	1.9215087e-04
0.0554823      	1.9222827e-04
0.0555118      	1.9230562e-04
0.0555414      	1.9238295e-04
0.0555709      	1.9246025e-04
0.0556004      	1.9253751e-04
0.0556299      	1.9261474e-04
0.0556594      	1.9269194e-04
0.0556889      	1.9276910e-04
0.0557184      	1.9284624e-04
0.0557479      	1.9292333e-04
0.0557773      	1.9300040e-04
0.0558068      	1.9307744e-04
0.0558362      	1.9315444e-04
0.0558656      	1.9323141e-04
0.055895       	1.9330836e-04
0.0559244      	1.9338526e-04
0.0559538      	1.9346214e-04
0.0559832      	1.9353898e-04
0.0560125      	1.9361580e-04
0.0560419      	1.9369258e-04
0.0560712      	1.9376933e-04
0.0561005      	1.9384605e-04
0.0561298      	1.9392274e-04
0.0561591      	1.9399939e-04
0.0561884      	1.9407602e-04
0.0562177      	1.9415261e-04
0.056247       	1.9422918e-04
0.0562762      	1.9430571e-04
0.0563055      	1.9438221e-04
0.0563347      	1.9445868e-04
0.0563639      	1.9453512e-04
0.0563932      	1.9461153e-04
0.0564224      	1.9468791e-04
0.0564515      	1.9476426e-04
0.0564807      	1.9484058e-04
0.0565099      	1.9491686e-04
0.056539       	1.9499312e-04
0.0565682      	1.9506934e-04
0.0565973      	1.9514554e-04
0.0566264      	1.9522171e-04
0.0566556      	1.9529784e-04
0.0566847      	1.9537395e-04
0.0567137      	1.9545002e-04
0.0567428      	1.9552607e-04
0.0567719      	1.9560209e-04
0.0568009      	1.9567807e-04
0.05683        	1.9575403e-04
0.056859       	1.9582995e-04
0.056888       	1.9590585e-04
0.056917       	1.9598172e-04
0.056946       	1.9605756e-04
0.056975       	1.9613337e-04
0.057004       	1.9620915e-04
0.057033       	1.9628490e-04
0.0570619      	1.9636062e-04
0.0570909      	1.9643631e-04
0.0571198      	1.9651198e-04
0.0571487      	1.9658761e-04
0.0571776      	1.9666322e-04
0.0572065      	1.9673879e-04
0.0572354      	1.9681434e-04
0.0572643      	1.9688986e-04
0.0572932      	1.9696535e-04
0.057322       	1.9704081e-04
0.0573509      	1.9711624e-04
0.0573797      	1.9719164e-04
0.0574085      	1.9726702e-04
0.0574374      	1.9734237e-04
0.0574662      	1.9741769e-04
0.057495       	1.9749297e-04
0.0575237      	1.9756824e-04
0.0575525      	1.9764347e-04
0.0575813      	1.9771868e-04
0.05761        	1.9779385e-04
0.0576388      	1.9786901e-04
0.0576675      	1.9794413e-04
0.0576962      	1.9801922e-04
0.0577249      	1.9809429e-04
0.0577536      	1.9816933e-04
0.0577823      	1.9824433e-04
0.057811       	1.9831932e-04
0.0578396      	1.9839427e-04
0.0578683      	1.9846920e-04
0.0578969      	1.9854410e-04
0.0579255      	1.9861897e-04
0.0579542      	1.9869382e-04
0.0579828      	1.9876864e-04
0.0580114      	1.9884331e-04
0.05804        	1.9891780e-04
0.0580685      	1.9899225e-04
0.0580971      	1.9906669e-04
0.0581257      	1.9914109e-04
0.0581542      	1.9921546e-04
0.0581827      	1.9928981e-04
0.0582113      	1.9936413e-04
0.0582398      	1.9943843e-04
0.0582683      	1.9951270e-04
0.0582968      	1.9958694e-04
0.0583253      	1.9966116e-04
0.0583537      	1.9973534e-04
0.0583822      	1.9980951e-04
0.0584107      	1.9988364e-04
0.0584391      	1.9995775e-04
0.0584675      	2.0003183e-04
0.0584959      	2.0010589e-04
0.0585244      	2.0017992e-04
0.0585528      	2.0025393e-04
0.0585811      	2.0032790e-04
0.0586095      	2.0040186e-04
0.0586379      	2.0047578e-04
0.0586663      	2.0054968e-04
0.0586946      	2.0062356e-04
0.0587229      	2.0069741e-04
0.0587513      	2.0077123e-04
0.0587796      	2.0084502e-04
0.0588079      	2.0091879e-04
0.0588362      	2.0099254e-04
0.0588645      	2.0106626e-04
0.0588928      	2.0113995e-04
0.058921       	2.0121362e-04
0.0589493      	2.0128726e-04
0.0589775      	2.0136087e-04
0.0590058      	2.0143452e-04
0.059034       	2.0150836e-04
0.0590622      	2.0158218e-04
0.0590904      	2.0165597e-04
0.0591186      	2.0172973e-04
0.0591468      	2.0180347e-04
0.059175       	2.0187718e-04
0.0592031      	2.0195087e-04
0.0592313      	2.0202453e-04
0.0592594      	2.0209817e-04
0.0592876      	2.0217178e-04
0.0593157      	2.0224536e-04
0.0593438      	2.0231893e-04
0.0593719      	2.0239246e-04
0.0594         	2.0246597e-04
0.0594281      	2.0253946e-04
0.0594562      	2.0261292e-04
0.0594842      	2.0268635e-04
0.0595123      	2.0275976e-04
0.0595403      	2.0283314e-04
0.0595684      	2.0290651e-04
0.0595964      	2.0297984e-04
0.0596244      	2.0305315e-04
0.0596524      	2.0312643e-04
0.0596804      	2.0319970e-04
0.0597084      	2.0327293e-04
0.0597364      	2.0334614e-04
0.0597643      	2.0341933e-04
0.0597923      	2.0349249e-04
0.0598202      	2.0356562e-04
0.0598482      	2.0363874e-04
0.0598761      	2.0371182e-04
0.059904       	2.0378489e-04
0.0599319      	2.0385792e-04
0.0599598      	2.0393094e-04
0.0599877      	2.0400393e-04
0.0600156      	2.0407689e-04
0.0600434      	2.0414983e-04
0.0600713      	2.0422275e-04
0.0600991      	2.0429564e-04
0.060127       	2.0436851e-04
0.0601548      	2.0444135e-04
0.0601826      	2.0451417e-04
0.0602104      	2.0458696e-04
0.0602382      	2.0465974e-04
0.060266       	2.0473248e-04
0.0602938      	2.0480520e-04
0.0603216      	2.0487790e-04
0.0603493      	2.0495058e-04
0.0603771      	2.0502322e-04
0.0604048      	2.0509585e-04
0.0604325      	2.0516845e-04
0.0604603      	2.0524103e-04
0.060488       	2.0531358e-04
0.0605157      	2.0538612e-04
0.0605434      	2.0545862e-04
0.0605711      	2.0553110e-04
0.0605987      	2.0560356e-04
0.0606264      	2.0567600e-04
0.060654       	2.0574841e-04
0.0606817      	2.0582080e-04
0.0607093      	2.0589316e-04
0.0607369      	2.0596550e-04
0.0607646      	2.0603782e-04
0.0607922      	2.0611011e-04
0.0608198      	2.0618238e-04
0.0608473      	2.0625463e-04
0.0608749      	2.0632685e-04
0.0609025      	2.0639905e-04
0.06093        	2.0647122e-04
0.0609576      	2.0654337e-04
0.0609851      	2.0661550e-04
0.0610127      	2.0668761e-04